##############################################################
# Execution started on: n1
# at: Thu Apr 8 17:46:46 CEST 2021
# CPU information:
# model name : Intel(R) Xeon(R) CPU X5650 @ 2.67GHz
##############################################################
 Entering Gaussian System, Link 0=/opt/g09-n4-gcc-10.2.0-csize-1024-kb-2021-01-06/g09d.x
 Initial command:
 /opt/g09-n4-gcc-10.2.0-csize-1024-kb-2021-01-06/links/l1.exe "/home/michael/scratch/g09d/Gau-11414.inp" -scrdir="/home/michael/scratch/g09d/"
 Entering Link 1 = /opt/g09-n4-gcc-10.2.0-csize-1024-kb-2021-01-06/links/l1.exe PID=     11416.
  
 Copyright (c) 1988,1990,1992,1993,1995,1998,2003,2009,2013,
            Gaussian, Inc.  All Rights Reserved.
  
 This is part of the Gaussian(R) 09 program.  It is based on
 the Gaussian(R) 03 system (copyright 2003, Gaussian, Inc.),
 the Gaussian(R) 98 system (copyright 1998, Gaussian, Inc.),
 the Gaussian(R) 94 system (copyright 1995, Gaussian, Inc.),
 the Gaussian 92(TM) system (copyright 1992, Gaussian, Inc.),
 the Gaussian 90(TM) system (copyright 1990, Gaussian, Inc.),
 the Gaussian 88(TM) system (copyright 1988, Gaussian, Inc.),
 the Gaussian 86(TM) system (copyright 1986, Carnegie Mellon
 University), and the Gaussian 82(TM) system (copyright 1983,
 Carnegie Mellon University). Gaussian is a federally registered
 trademark of Gaussian, Inc.
  
 This software contains proprietary and confidential information,
 including trade secrets, belonging to Gaussian, Inc.
  
 This software is provided under written license and may be
 used, copied, transmitted, or stored only in accord with that
 written license.
  
 The following legend is applicable only to US Government
 contracts under FAR:
  
                    RESTRICTED RIGHTS LEGEND
  
 Use, reproduction and disclosure by the US Government is
 subject to restrictions as set forth in subparagraphs (a)
 and (c) of the Commercial Computer Software - Restricted
 Rights clause in FAR 52.227-19.
  
 Gaussian, Inc.
 340 Quinnipiac St., Bldg. 40, Wallingford CT 06492
  
  
 ---------------------------------------------------------------
 Warning -- This program may not be used in any manner that
 competes with the business of Gaussian, Inc. or will provide
 assistance to any competitor of Gaussian, Inc.  The licensee
 of this program is prohibited from giving any competitor of
 Gaussian, Inc. access to this program.  By using this program,
 the user acknowledges that Gaussian, Inc. is engaged in the
 business of creating and licensing software in the field of
 computational chemistry and represents and warrants to the
 licensee that it is not a competitor of Gaussian, Inc. and that
 it will not use this program in any manner prohibited above.
 ---------------------------------------------------------------
  

 Cite this work as:
 Gaussian 09, Revision D.01,
 M. J. Frisch, G. W. Trucks, H. B. Schlegel, G. E. Scuseria, 
 M. A. Robb, J. R. Cheeseman, G. Scalmani, V. Barone, B. Mennucci, 
 G. A. Petersson, H. Nakatsuji, M. Caricato, X. Li, H. P. Hratchian, 
 A. F. Izmaylov, J. Bloino, G. Zheng, J. L. Sonnenberg, M. Hada, 
 M. Ehara, K. Toyota, R. Fukuda, J. Hasegawa, M. Ishida, T. Nakajima, 
 Y. Honda, O. Kitao, H. Nakai, T. Vreven, J. A. Montgomery, Jr., 
 J. E. Peralta, F. Ogliaro, M. Bearpark, J. J. Heyd, E. Brothers, 
 K. N. Kudin, V. N. Staroverov, T. Keith, R. Kobayashi, J. Normand, 
 K. Raghavachari, A. Rendell, J. C. Burant, S. S. Iyengar, J. Tomasi, 
 M. Cossi, N. Rega, J. M. Millam, M. Klene, J. E. Knox, J. B. Cross, 
 V. Bakken, C. Adamo, J. Jaramillo, R. Gomperts, R. E. Stratmann, 
 O. Yazyev, A. J. Austin, R. Cammi, C. Pomelli, J. W. Ochterski, 
 R. L. Martin, K. Morokuma, V. G. Zakrzewski, G. A. Voth, 
 P. Salvador, J. J. Dannenberg, S. Dapprich, A. D. Daniels, 
 O. Farkas, J. B. Foresman, J. V. Ortiz, J. Cioslowski, 
 and D. J. Fox, Gaussian, Inc., Wallingford CT, 2013.
 
 ******************************************
 Gaussian 09:  EM64L-G09RevD.01 24-Apr-2013
                 8-Apr-2021 
 ******************************************
 %NProc=8
 Will use up to    8 processors via shared memory.
 %Mem=7781mb
 %chk=SIG779__close.chk
 -----------------------------------
 #P b3lyp/6-31G(d,p) opt freq(Raman)
 -----------------------------------
 1/14=-1,18=20,19=15,26=3,38=1/1,3;
 2/9=110,12=2,17=6,18=5,40=1/2;
 3/5=1,6=6,7=101,11=2,16=1,25=1,30=1,71=1,74=-5/1,2,3;
 4//1;
 5/5=2,38=5/2;
 6/7=2,8=2,9=2,10=2,28=1/1;
 7//1,2,3,16;
 1/14=-1,18=20,19=15,26=3/3(2);
 2/9=110/2;
 99//99;
 2/9=110/2;
 3/5=1,6=6,7=101,11=2,16=1,25=1,30=1,71=1,74=-5/1,2,3;
 4/5=5,16=3,69=1/1;
 5/5=2,38=5/2;
 7//1,2,3,16;
 1/14=-1,18=20,19=15,26=3/3(-5);
 2/9=110/2;
 6/7=2,8=2,9=2,10=2,19=2,28=1/1;
 99/9=1/99;
 Leave Link    1 at Thu Apr  8 17:46:46 2021, MaxMem=  1019871232 cpu:         0.1
 (Enter /opt/g09-n4-gcc-10.2.0-csize-1024-kb-2021-01-06/links/l101.exe)
 -------------
 SIG779__close
 -------------
 Symbolic Z-matrix:
 Charge =  0 Multiplicity = 1
 C                    -0.39487  -0.71034  -0.10258 
 S                    -1.16161  -2.26103  -0.8266 
 C                    -2.56367  -1.34821  -1.43264 
 C                    -2.41367   0.02228  -1.3193 
 C                    -1.18452   0.4391   -0.75533 
 C                    -0.63093   1.69624  -0.66078 
 C                     0.69448   1.89903  -0.1485 
 C                     0.97048   3.36074   0.02201 
 C                    -0.42054   4.03357  -0.17284 
 C                    -1.22255   3.01653  -1.03746 
 F                    -1.01379   3.3169   -2.3691 
 F                    -2.57214   3.11043  -0.81335 
 F                    -1.03155   4.14593   1.04485 
 F                    -0.33325   5.26083  -0.74012 
 F                     1.51562   3.67511   1.24397 
 F                     1.8422    3.83927  -0.93136 
 C                     1.55495   0.85096   0.0731 
 C                     1.10774  -0.52982  -0.43247 
 S                     2.24994  -1.72898   0.45279 
 C                     3.36419  -0.40831   0.89628 
 C                     2.84454   0.84788   0.65305 
 H                     3.34567   1.7665    0.94164 
 H                    -3.14032   0.73213  -1.70149 
 C                     1.42389  -0.60338  -1.9526 
 C                    -0.70394  -0.69399   1.42063 
 H                     1.17847  -1.58908  -2.35837 
 H                     2.48986  -0.40546  -2.10387 
 H                     0.84326   0.15682  -2.48846 
 H                    -1.787    -0.76072   1.5649 
 H                    -0.34547   0.24503   1.85907 
 H                    -0.21768  -1.53083   1.92937 
 C                     6.89611   0.05339   2.14616 
 C                     5.65541   0.31379   1.57616 
 C                     4.6669   -0.70045   1.48204 
 C                     4.97802  -1.99336   1.97049 
 C                     6.21748  -2.26603   2.54245 
 C                     7.16061  -1.23648   2.62374 
 H                     6.46925  -3.24878   2.92824 
 H                     5.45552   1.3052    1.17887 
 H                     4.23381  -2.78558   1.91237 
 C                    -3.70428  -2.0582   -2.0063 
 C                    -4.9429   -1.39503  -2.16349 
 C                    -6.00639  -2.08928  -2.73821 
 C                    -5.88022  -3.44611  -3.16074 
 C                    -4.6473   -4.10295  -2.99157 
 C                    -3.58362  -3.41388  -2.42197 
 H                    -4.54547  -5.13557  -3.31302 
 H                    -5.06819  -0.37121  -1.82171 
 S                    -7.64148  -1.53887  -3.05539 
 H                    -2.6254   -3.91805  -2.30843 
 N                    -7.02076  -4.0151   -3.7093 
 N                     8.47622  -1.51844   3.22379 
 C                    -8.00784  -3.16118  -3.72295 
 C                    -9.37904  -3.45705  -4.25521 
 H                    -10.1422  -3.30881  -3.47997 
 H                    -9.62426  -2.79398  -5.09495 
 H                    -9.40707  -4.4953   -4.5961 
 O                     9.29564  -0.58389   3.27833 
 O                     8.68343  -2.67237   3.64096 
 H                     7.66329   0.81807   2.22182 
 
 NAtoms=     60 NQM=       60 NQMF=       0 NMMI=      0 NMMIF=      0
                NMic=       0 NMicF=      0.
                    Isotopes and Nuclear Properties:
 (Nuclear quadrupole moments (NQMom) in fm**2, nuclear magnetic moments (NMagM)
  in nuclear magnetons)

  Atom         1           2           3           4           5           6           7           8           9          10
 IAtWgt=          12          32          12          12          12          12          12          12          12          12
 AtmWgt=  12.0000000  31.9720718  12.0000000  12.0000000  12.0000000  12.0000000  12.0000000  12.0000000  12.0000000  12.0000000
 NucSpn=           0           0           0           0           0           0           0           0           0           0
 AtZEff=   0.0000000   0.0000000   0.0000000   0.0000000   0.0000000   0.0000000   0.0000000   0.0000000   0.0000000   0.0000000
 NQMom=    0.0000000   0.0000000   0.0000000   0.0000000   0.0000000   0.0000000   0.0000000   0.0000000   0.0000000   0.0000000
 NMagM=    0.0000000   0.0000000   0.0000000   0.0000000   0.0000000   0.0000000   0.0000000   0.0000000   0.0000000   0.0000000
 AtZNuc=   6.0000000  16.0000000   6.0000000   6.0000000   6.0000000   6.0000000   6.0000000   6.0000000   6.0000000   6.0000000

  Atom        11          12          13          14          15          16          17          18          19          20
 IAtWgt=          19          19          19          19          19          19          12          12          32          12
 AtmWgt=  18.9984032  18.9984032  18.9984032  18.9984032  18.9984032  18.9984032  12.0000000  12.0000000  31.9720718  12.0000000
 NucSpn=           1           1           1           1           1           1           0           0           0           0
 AtZEff=   0.0000000   0.0000000   0.0000000   0.0000000   0.0000000   0.0000000   0.0000000   0.0000000   0.0000000   0.0000000
 NQMom=    0.0000000   0.0000000   0.0000000   0.0000000   0.0000000   0.0000000   0.0000000   0.0000000   0.0000000   0.0000000
 NMagM=    2.6288670   2.6288670   2.6288670   2.6288670   2.6288670   2.6288670   0.0000000   0.0000000   0.0000000   0.0000000
 AtZNuc=   9.0000000   9.0000000   9.0000000   9.0000000   9.0000000   9.0000000   6.0000000   6.0000000  16.0000000   6.0000000

  Atom        21          22          23          24          25          26          27          28          29          30
 IAtWgt=          12           1           1          12          12           1           1           1           1           1
 AtmWgt=  12.0000000   1.0078250   1.0078250  12.0000000  12.0000000   1.0078250   1.0078250   1.0078250   1.0078250   1.0078250
 NucSpn=           0           1           1           0           0           1           1           1           1           1
 AtZEff=   0.0000000   0.0000000   0.0000000   0.0000000   0.0000000   0.0000000   0.0000000   0.0000000   0.0000000   0.0000000
 NQMom=    0.0000000   0.0000000   0.0000000   0.0000000   0.0000000   0.0000000   0.0000000   0.0000000   0.0000000   0.0000000
 NMagM=    0.0000000   2.7928460   2.7928460   0.0000000   0.0000000   2.7928460   2.7928460   2.7928460   2.7928460   2.7928460
 AtZNuc=   6.0000000   1.0000000   1.0000000   6.0000000   6.0000000   1.0000000   1.0000000   1.0000000   1.0000000   1.0000000

  Atom        31          32          33          34          35          36          37          38          39          40
 IAtWgt=           1          12          12          12          12          12          12           1           1           1
 AtmWgt=   1.0078250  12.0000000  12.0000000  12.0000000  12.0000000  12.0000000  12.0000000   1.0078250   1.0078250   1.0078250
 NucSpn=           1           0           0           0           0           0           0           1           1           1
 AtZEff=   0.0000000   0.0000000   0.0000000   0.0000000   0.0000000   0.0000000   0.0000000   0.0000000   0.0000000   0.0000000
 NQMom=    0.0000000   0.0000000   0.0000000   0.0000000   0.0000000   0.0000000   0.0000000   0.0000000   0.0000000   0.0000000
 NMagM=    2.7928460   0.0000000   0.0000000   0.0000000   0.0000000   0.0000000   0.0000000   2.7928460   2.7928460   2.7928460
 AtZNuc=   1.0000000   6.0000000   6.0000000   6.0000000   6.0000000   6.0000000   6.0000000   1.0000000   1.0000000   1.0000000

  Atom        41          42          43          44          45          46          47          48          49          50
 IAtWgt=          12          12          12          12          12          12           1           1          32           1
 AtmWgt=  12.0000000  12.0000000  12.0000000  12.0000000  12.0000000  12.0000000   1.0078250   1.0078250  31.9720718   1.0078250
 NucSpn=           0           0           0           0           0           0           1           1           0           1
 AtZEff=   0.0000000   0.0000000   0.0000000   0.0000000   0.0000000   0.0000000   0.0000000   0.0000000   0.0000000   0.0000000
 NQMom=    0.0000000   0.0000000   0.0000000   0.0000000   0.0000000   0.0000000   0.0000000   0.0000000   0.0000000   0.0000000
 NMagM=    0.0000000   0.0000000   0.0000000   0.0000000   0.0000000   0.0000000   2.7928460   2.7928460   0.0000000   2.7928460
 AtZNuc=   6.0000000   6.0000000   6.0000000   6.0000000   6.0000000   6.0000000   1.0000000   1.0000000  16.0000000   1.0000000

  Atom        51          52          53          54          55          56          57          58          59          60
 IAtWgt=          14          14          12          12           1           1           1          16          16           1
 AtmWgt=  14.0030740  14.0030740  12.0000000  12.0000000   1.0078250   1.0078250   1.0078250  15.9949146  15.9949146   1.0078250
 NucSpn=           2           2           0           0           1           1           1           0           0           1
 AtZEff=   0.0000000   0.0000000   0.0000000   0.0000000   0.0000000   0.0000000   0.0000000   0.0000000   0.0000000   0.0000000
 NQMom=    2.0440000   2.0440000   0.0000000   0.0000000   0.0000000   0.0000000   0.0000000   0.0000000   0.0000000   0.0000000
 NMagM=    0.4037610   0.4037610   0.0000000   0.0000000   2.7928460   2.7928460   2.7928460   0.0000000   0.0000000   2.7928460
 AtZNuc=   7.0000000   7.0000000   6.0000000   6.0000000   1.0000000   1.0000000   1.0000000   8.0000000   8.0000000   1.0000000
 Leave Link  101 at Thu Apr  8 17:46:47 2021, MaxMem=  1019871232 cpu:         0.4
 (Enter /opt/g09-n4-gcc-10.2.0-csize-1024-kb-2021-01-06/links/l103.exe)

 GradGradGradGradGradGradGradGradGradGradGradGradGradGradGradGradGradGrad
 Berny optimization.
 Initialization pass.
                           ----------------------------
                           !    Initial Parameters    !
                           ! (Angstroms and Degrees)  !
 --------------------------                            --------------------------
 ! Name  Definition              Value          Derivative Info.                !
 --------------------------------------------------------------------------------
 ! R1    R(1,2)                  1.8753         estimate D2E/DX2                !
 ! R2    R(1,5)                  1.5398         estimate D2E/DX2                !
 ! R3    R(1,18)                 1.5489         estimate D2E/DX2                !
 ! R4    R(1,25)                 1.5543         estimate D2E/DX2                !
 ! R5    R(2,3)                  1.7794         estimate D2E/DX2                !
 ! R6    R(3,4)                  1.3833         estimate D2E/DX2                !
 ! R7    R(3,41)                 1.4609         estimate D2E/DX2                !
 ! R8    R(4,5)                  1.4151         estimate D2E/DX2                !
 ! R9    R(4,23)                 1.0853         estimate D2E/DX2                !
 ! R10   R(5,6)                  1.3769         estimate D2E/DX2                !
 ! R11   R(6,7)                  1.4354         estimate D2E/DX2                !
 ! R12   R(6,10)                 1.495          estimate D2E/DX2                !
 ! R13   R(7,8)                  1.4973         estimate D2E/DX2                !
 ! R14   R(7,17)                 1.374          estimate D2E/DX2                !
 ! R15   R(8,9)                  1.5574         estimate D2E/DX2                !
 ! R16   R(8,15)                 1.3745         estimate D2E/DX2                !
 ! R17   R(8,16)                 1.3776         estimate D2E/DX2                !
 ! R18   R(9,10)                 1.5573         estimate D2E/DX2                !
 ! R19   R(9,13)                 1.367          estimate D2E/DX2                !
 ! R20   R(9,14)                 1.3548         estimate D2E/DX2                !
 ! R21   R(10,11)                1.381          estimate D2E/DX2                !
 ! R22   R(10,12)                1.3713         estimate D2E/DX2                !
 ! R23   R(17,18)                1.5369         estimate D2E/DX2                !
 ! R24   R(17,21)                1.414          estimate D2E/DX2                !
 ! R25   R(18,19)                1.8778         estimate D2E/DX2                !
 ! R26   R(18,24)                1.5544         estimate D2E/DX2                !
 ! R27   R(19,20)                1.7839         estimate D2E/DX2                !
 ! R28   R(20,21)                1.381          estimate D2E/DX2                !
 ! R29   R(20,34)                1.4579         estimate D2E/DX2                !
 ! R30   R(21,22)                1.0855         estimate D2E/DX2                !
 ! R31   R(24,26)                1.0938         estimate D2E/DX2                !
 ! R32   R(24,27)                1.0947         estimate D2E/DX2                !
 ! R33   R(24,28)                1.0964         estimate D2E/DX2                !
 ! R34   R(25,29)                1.0947         estimate D2E/DX2                !
 ! R35   R(25,30)                1.0966         estimate D2E/DX2                !
 ! R36   R(25,31)                1.0934         estimate D2E/DX2                !
 ! R37   R(32,33)                1.39           estimate D2E/DX2                !
 ! R38   R(32,37)                1.4006         estimate D2E/DX2                !
 ! R39   R(32,60)                1.0858         estimate D2E/DX2                !
 ! R40   R(33,34)                1.4194         estimate D2E/DX2                !
 ! R41   R(33,39)                1.0866         estimate D2E/DX2                !
 ! R42   R(34,35)                1.4167         estimate D2E/DX2                !
 ! R43   R(35,36)                1.392          estimate D2E/DX2                !
 ! R44   R(35,40)                1.0885         estimate D2E/DX2                !
 ! R45   R(36,37)                1.3986         estimate D2E/DX2                !
 ! R46   R(36,38)                1.0854         estimate D2E/DX2                !
 ! R47   R(37,52)                1.4732         estimate D2E/DX2                !
 ! R48   R(41,42)                1.4137         estimate D2E/DX2                !
 ! R49   R(41,46)                1.4231         estimate D2E/DX2                !
 ! R50   R(42,43)                1.394          estimate D2E/DX2                !
 ! R51   R(42,48)                1.0866         estimate D2E/DX2                !
 ! R52   R(43,44)                1.4267         estimate D2E/DX2                !
 ! R53   R(43,49)                1.7542         estimate D2E/DX2                !
 ! R54   R(44,45)                1.4072         estimate D2E/DX2                !
 ! R55   R(44,51)                1.3876         estimate D2E/DX2                !
 ! R56   R(45,46)                1.3895         estimate D2E/DX2                !
 ! R57   R(45,47)                1.0863         estimate D2E/DX2                !
 ! R58   R(46,50)                1.0887         estimate D2E/DX2                !
 ! R59   R(49,53)                1.7921         estimate D2E/DX2                !
 ! R60   R(51,53)                1.3053         estimate D2E/DX2                !
 ! R61   R(52,58)                1.2441         estimate D2E/DX2                !
 ! R62   R(52,59)                1.2444         estimate D2E/DX2                !
 ! R63   R(53,54)                1.5003         estimate D2E/DX2                !
 ! R64   R(54,55)                1.0979         estimate D2E/DX2                !
 ! R65   R(54,56)                1.0977         estimate D2E/DX2                !
 ! R66   R(54,57)                1.0931         estimate D2E/DX2                !
 ! A1    A(2,1,5)              104.1189         estimate D2E/DX2                !
 ! A2    A(2,1,18)             114.2539         estimate D2E/DX2                !
 ! A3    A(2,1,25)             107.8032         estimate D2E/DX2                !
 ! A4    A(5,1,18)             108.6755         estimate D2E/DX2                !
 ! A5    A(5,1,25)             107.7949         estimate D2E/DX2                !
 ! A6    A(18,1,25)            113.6021         estimate D2E/DX2                !
 ! A7    A(1,2,3)               91.6882         estimate D2E/DX2                !
 ! A8    A(2,3,4)              113.2588         estimate D2E/DX2                !
 ! A9    A(2,3,41)             119.9752         estimate D2E/DX2                !
 ! A10   A(4,3,41)             126.7503         estimate D2E/DX2                !
 ! A11   A(3,4,5)              114.7491         estimate D2E/DX2                !
 ! A12   A(3,4,23)             123.1283         estimate D2E/DX2                !
 ! A13   A(5,4,23)             121.9522         estimate D2E/DX2                !
 ! A14   A(1,5,4)              113.2355         estimate D2E/DX2                !
 ! A15   A(1,5,6)              116.5053         estimate D2E/DX2                !
 ! A16   A(4,5,6)              130.2043         estimate D2E/DX2                !
 ! A17   A(5,6,7)              121.6527         estimate D2E/DX2                !
 ! A18   A(5,6,10)             129.0438         estimate D2E/DX2                !
 ! A19   A(7,6,10)             109.3032         estimate D2E/DX2                !
 ! A20   A(6,7,8)              110.413          estimate D2E/DX2                !
 ! A21   A(6,7,17)             121.8741         estimate D2E/DX2                !
 ! A22   A(8,7,17)             127.651          estimate D2E/DX2                !
 ! A23   A(7,8,9)              104.0559         estimate D2E/DX2                !
 ! A24   A(7,8,15)             113.4306         estimate D2E/DX2                !
 ! A25   A(7,8,16)             112.1445         estimate D2E/DX2                !
 ! A26   A(9,8,15)             111.5094         estimate D2E/DX2                !
 ! A27   A(9,8,16)             109.1787         estimate D2E/DX2                !
 ! A28   A(15,8,16)            106.5489         estimate D2E/DX2                !
 ! A29   A(8,9,10)             104.3175         estimate D2E/DX2                !
 ! A30   A(8,9,13)             108.8609         estimate D2E/DX2                !
 ! A31   A(8,9,14)             112.717          estimate D2E/DX2                !
 ! A32   A(10,9,13)            108.5449         estimate D2E/DX2                !
 ! A33   A(10,9,14)            113.0975         estimate D2E/DX2                !
 ! A34   A(13,9,14)            109.1054         estimate D2E/DX2                !
 ! A35   A(6,10,9)             103.4774         estimate D2E/DX2                !
 ! A36   A(6,10,11)            112.038          estimate D2E/DX2                !
 ! A37   A(6,10,12)            114.1272         estimate D2E/DX2                !
 ! A38   A(9,10,11)            108.389          estimate D2E/DX2                !
 ! A39   A(9,10,12)            111.8017         estimate D2E/DX2                !
 ! A40   A(11,10,12)           106.9467         estimate D2E/DX2                !
 ! A41   A(7,17,18)            116.7438         estimate D2E/DX2                !
 ! A42   A(7,17,21)            129.7129         estimate D2E/DX2                !
 ! A43   A(18,17,21)           113.4746         estimate D2E/DX2                !
 ! A44   A(1,18,17)            108.4767         estimate D2E/DX2                !
 ! A45   A(1,18,19)            114.5334         estimate D2E/DX2                !
 ! A46   A(1,18,24)            113.5826         estimate D2E/DX2                !
 ! A47   A(17,18,19)           103.9835         estimate D2E/DX2                !
 ! A48   A(17,18,24)           107.7604         estimate D2E/DX2                !
 ! A49   A(19,18,24)           107.8842         estimate D2E/DX2                !
 ! A50   A(18,19,20)            91.3956         estimate D2E/DX2                !
 ! A51   A(19,20,21)           113.2408         estimate D2E/DX2                !
 ! A52   A(19,20,34)           120.6404         estimate D2E/DX2                !
 ! A53   A(21,20,34)           126.1038         estimate D2E/DX2                !
 ! A54   A(17,21,20)           114.6693         estimate D2E/DX2                !
 ! A55   A(17,21,22)           121.8875         estimate D2E/DX2                !
 ! A56   A(20,21,22)           123.3152         estimate D2E/DX2                !
 ! A57   A(18,24,26)           111.0876         estimate D2E/DX2                !
 ! A58   A(18,24,27)           108.9432         estimate D2E/DX2                !
 ! A59   A(18,24,28)           109.7206         estimate D2E/DX2                !
 ! A60   A(26,24,27)           109.2775         estimate D2E/DX2                !
 ! A61   A(26,24,28)           108.9464         estimate D2E/DX2                !
 ! A62   A(27,24,28)           108.8307         estimate D2E/DX2                !
 ! A63   A(1,25,29)            108.9808         estimate D2E/DX2                !
 ! A64   A(1,25,30)            109.6222         estimate D2E/DX2                !
 ! A65   A(1,25,31)            111.0673         estimate D2E/DX2                !
 ! A66   A(29,25,30)           108.8412         estimate D2E/DX2                !
 ! A67   A(29,25,31)           109.3923         estimate D2E/DX2                !
 ! A68   A(30,25,31)           108.9034         estimate D2E/DX2                !
 ! A69   A(33,32,37)           118.7447         estimate D2E/DX2                !
 ! A70   A(33,32,60)           121.8228         estimate D2E/DX2                !
 ! A71   A(37,32,60)           119.4303         estimate D2E/DX2                !
 ! A72   A(32,33,34)           120.9951         estimate D2E/DX2                !
 ! A73   A(32,33,39)           119.0168         estimate D2E/DX2                !
 ! A74   A(34,33,39)           119.9736         estimate D2E/DX2                !
 ! A75   A(20,34,33)           120.3811         estimate D2E/DX2                !
 ! A76   A(20,34,35)           121.1737         estimate D2E/DX2                !
 ! A77   A(33,34,35)           118.4451         estimate D2E/DX2                !
 ! A78   A(34,35,36)           121.0626         estimate D2E/DX2                !
 ! A79   A(34,35,40)           119.7135         estimate D2E/DX2                !
 ! A80   A(36,35,40)           119.2182         estimate D2E/DX2                !
 ! A81   A(35,36,37)           118.6929         estimate D2E/DX2                !
 ! A82   A(35,36,38)           122.0021         estimate D2E/DX2                !
 ! A83   A(37,36,38)           119.3046         estimate D2E/DX2                !
 ! A84   A(32,37,36)           122.0564         estimate D2E/DX2                !
 ! A85   A(32,37,52)           118.9321         estimate D2E/DX2                !
 ! A86   A(36,37,52)           119.0107         estimate D2E/DX2                !
 ! A87   A(3,41,42)            119.9827         estimate D2E/DX2                !
 ! A88   A(3,41,46)            120.7623         estimate D2E/DX2                !
 ! A89   A(42,41,46)           119.2531         estimate D2E/DX2                !
 ! A90   A(41,42,43)           118.7257         estimate D2E/DX2                !
 ! A91   A(41,42,48)           120.5329         estimate D2E/DX2                !
 ! A92   A(43,42,48)           120.727          estimate D2E/DX2                !
 ! A93   A(42,43,44)           121.8883         estimate D2E/DX2                !
 ! A94   A(42,43,49)           129.0051         estimate D2E/DX2                !
 ! A95   A(44,43,49)           109.1047         estimate D2E/DX2                !
 ! A96   A(43,44,45)           119.0649         estimate D2E/DX2                !
 ! A97   A(43,44,51)           115.7445         estimate D2E/DX2                !
 ! A98   A(45,44,51)           125.1893         estimate D2E/DX2                !
 ! A99   A(44,45,46)           119.2439         estimate D2E/DX2                !
 ! A100  A(44,45,47)           119.3583         estimate D2E/DX2                !
 ! A101  A(46,45,47)           121.3972         estimate D2E/DX2                !
 ! A102  A(41,46,45)           121.8199         estimate D2E/DX2                !
 ! A103  A(41,46,50)           119.033          estimate D2E/DX2                !
 ! A104  A(45,46,50)           119.1356         estimate D2E/DX2                !
 ! A105  A(43,49,53)            88.5023         estimate D2E/DX2                !
 ! A106  A(44,51,53)           110.944          estimate D2E/DX2                !
 ! A107  A(37,52,58)           117.5327         estimate D2E/DX2                !
 ! A108  A(37,52,59)           117.563          estimate D2E/DX2                !
 ! A109  A(58,52,59)           124.904          estimate D2E/DX2                !
 ! A110  A(49,53,51)           115.7044         estimate D2E/DX2                !
 ! A111  A(49,53,54)           119.8343         estimate D2E/DX2                !
 ! A112  A(51,53,54)           124.4606         estimate D2E/DX2                !
 ! A113  A(53,54,55)           110.9865         estimate D2E/DX2                !
 ! A114  A(53,54,56)           110.881          estimate D2E/DX2                !
 ! A115  A(53,54,57)           108.7452         estimate D2E/DX2                !
 ! A116  A(55,54,56)           107.6579         estimate D2E/DX2                !
 ! A117  A(55,54,57)           109.3062         estimate D2E/DX2                !
 ! A118  A(56,54,57)           109.2347         estimate D2E/DX2                !
 ! D1    D(5,1,2,3)            -14.4728         estimate D2E/DX2                !
 ! D2    D(18,1,2,3)          -132.8631         estimate D2E/DX2                !
 ! D3    D(25,1,2,3)            99.8423         estimate D2E/DX2                !
 ! D4    D(2,1,5,4)             17.7341         estimate D2E/DX2                !
 ! D5    D(2,1,5,6)           -164.6826         estimate D2E/DX2                !
 ! D6    D(18,1,5,4)           139.8841         estimate D2E/DX2                !
 ! D7    D(18,1,5,6)           -42.5326         estimate D2E/DX2                !
 ! D8    D(25,1,5,4)           -96.5869         estimate D2E/DX2                !
 ! D9    D(25,1,5,6)            80.9965         estimate D2E/DX2                !
 ! D10   D(2,1,18,17)          173.2143         estimate D2E/DX2                !
 ! D11   D(2,1,18,19)          -71.1547         estimate D2E/DX2                !
 ! D12   D(2,1,18,24)           53.4267         estimate D2E/DX2                !
 ! D13   D(5,1,18,17)           57.4476         estimate D2E/DX2                !
 ! D14   D(5,1,18,19)          173.0786         estimate D2E/DX2                !
 ! D15   D(5,1,18,24)          -62.34           estimate D2E/DX2                !
 ! D16   D(25,1,18,17)         -62.5346         estimate D2E/DX2                !
 ! D17   D(25,1,18,19)          53.0964         estimate D2E/DX2                !
 ! D18   D(25,1,18,24)         177.6778         estimate D2E/DX2                !
 ! D19   D(2,1,25,29)          -55.9974         estimate D2E/DX2                !
 ! D20   D(2,1,25,30)         -175.0228         estimate D2E/DX2                !
 ! D21   D(2,1,25,31)           64.5847         estimate D2E/DX2                !
 ! D22   D(5,1,25,29)           55.8508         estimate D2E/DX2                !
 ! D23   D(5,1,25,30)          -63.1747         estimate D2E/DX2                !
 ! D24   D(5,1,25,31)          176.4329         estimate D2E/DX2                !
 ! D25   D(18,1,25,29)         176.3308         estimate D2E/DX2                !
 ! D26   D(18,1,25,30)          57.3054         estimate D2E/DX2                !
 ! D27   D(18,1,25,31)         -63.0871         estimate D2E/DX2                !
 ! D28   D(1,2,3,4)              9.0767         estimate D2E/DX2                !
 ! D29   D(1,2,3,41)          -172.269          estimate D2E/DX2                !
 ! D30   D(2,3,4,5)              0.3058         estimate D2E/DX2                !
 ! D31   D(2,3,4,23)           175.6396         estimate D2E/DX2                !
 ! D32   D(41,3,4,5)          -178.2393         estimate D2E/DX2                !
 ! D33   D(41,3,4,23)           -2.9055         estimate D2E/DX2                !
 ! D34   D(2,3,41,42)          163.4291         estimate D2E/DX2                !
 ! D35   D(2,3,41,46)          -17.0718         estimate D2E/DX2                !
 ! D36   D(4,3,41,42)          -18.114          estimate D2E/DX2                !
 ! D37   D(4,3,41,46)          161.3851         estimate D2E/DX2                !
 ! D38   D(3,4,5,1)            -12.5984         estimate D2E/DX2                !
 ! D39   D(3,4,5,6)            170.2335         estimate D2E/DX2                !
 ! D40   D(23,4,5,1)           172.0069         estimate D2E/DX2                !
 ! D41   D(23,4,5,6)            -5.1612         estimate D2E/DX2                !
 ! D42   D(1,5,6,7)              8.41           estimate D2E/DX2                !
 ! D43   D(1,5,6,10)          -171.7875         estimate D2E/DX2                !
 ! D44   D(4,5,6,7)           -174.4979         estimate D2E/DX2                !
 ! D45   D(4,5,6,10)             5.3046         estimate D2E/DX2                !
 ! D46   D(5,6,7,8)           -172.1153         estimate D2E/DX2                !
 ! D47   D(5,6,7,17)            10.5422         estimate D2E/DX2                !
 ! D48   D(10,6,7,8)             8.0472         estimate D2E/DX2                !
 ! D49   D(10,6,7,17)         -169.2952         estimate D2E/DX2                !
 ! D50   D(5,6,10,9)           156.8903         estimate D2E/DX2                !
 ! D51   D(5,6,10,11)          -86.5592         estimate D2E/DX2                !
 ! D52   D(5,6,10,12)           35.1673         estimate D2E/DX2                !
 ! D53   D(7,6,10,9)           -23.2878         estimate D2E/DX2                !
 ! D54   D(7,6,10,11)           93.2627         estimate D2E/DX2                !
 ! D55   D(7,6,10,12)         -145.0108         estimate D2E/DX2                !
 ! D56   D(6,7,8,9)             10.7957         estimate D2E/DX2                !
 ! D57   D(6,7,8,15)           132.1574         estimate D2E/DX2                !
 ! D58   D(6,7,8,16)          -107.0774         estimate D2E/DX2                !
 ! D59   D(17,7,8,9)          -172.0549         estimate D2E/DX2                !
 ! D60   D(17,7,8,15)          -50.6932         estimate D2E/DX2                !
 ! D61   D(17,7,8,16)           70.072          estimate D2E/DX2                !
 ! D62   D(6,7,17,18)            8.184          estimate D2E/DX2                !
 ! D63   D(6,7,17,21)         -175.0586         estimate D2E/DX2                !
 ! D64   D(8,7,17,18)         -168.6697         estimate D2E/DX2                !
 ! D65   D(8,7,17,21)            8.0876         estimate D2E/DX2                !
 ! D66   D(7,8,9,10)           -24.4282         estimate D2E/DX2                !
 ! D67   D(7,8,9,13)            91.297          estimate D2E/DX2                !
 ! D68   D(7,8,9,14)          -147.5057         estimate D2E/DX2                !
 ! D69   D(15,8,9,10)         -147.0618         estimate D2E/DX2                !
 ! D70   D(15,8,9,13)          -31.3366         estimate D2E/DX2                !
 ! D71   D(15,8,9,14)           89.8607         estimate D2E/DX2                !
 ! D72   D(16,8,9,10)           95.4723         estimate D2E/DX2                !
 ! D73   D(16,8,9,13)         -148.8026         estimate D2E/DX2                !
 ! D74   D(16,8,9,14)          -27.6053         estimate D2E/DX2                !
 ! D75   D(8,9,10,6)            28.9986         estimate D2E/DX2                !
 ! D76   D(8,9,10,11)          -90.0981         estimate D2E/DX2                !
 ! D77   D(8,9,10,12)          152.2687         estimate D2E/DX2                !
 ! D78   D(13,9,10,6)          -86.9475         estimate D2E/DX2                !
 ! D79   D(13,9,10,11)         153.9558         estimate D2E/DX2                !
 ! D80   D(13,9,10,12)          36.3226         estimate D2E/DX2                !
 ! D81   D(14,9,10,6)          151.828          estimate D2E/DX2                !
 ! D82   D(14,9,10,11)          32.7314         estimate D2E/DX2                !
 ! D83   D(14,9,10,12)         -84.9019         estimate D2E/DX2                !
 ! D84   D(7,17,18,1)          -42.2597         estimate D2E/DX2                !
 ! D85   D(7,17,18,19)        -164.5609         estimate D2E/DX2                !
 ! D86   D(7,17,18,24)          81.1039         estimate D2E/DX2                !
 ! D87   D(21,17,18,1)         140.4594         estimate D2E/DX2                !
 ! D88   D(21,17,18,19)         18.1581         estimate D2E/DX2                !
 ! D89   D(21,17,18,24)        -96.177          estimate D2E/DX2                !
 ! D90   D(7,17,21,20)         171.3997         estimate D2E/DX2                !
 ! D91   D(7,17,21,22)          -4.6152         estimate D2E/DX2                !
 ! D92   D(18,17,21,20)        -11.7573         estimate D2E/DX2                !
 ! D93   D(18,17,21,22)        172.2278         estimate D2E/DX2                !
 ! D94   D(1,18,19,20)        -133.7712         estimate D2E/DX2                !
 ! D95   D(17,18,19,20)        -15.5634         estimate D2E/DX2                !
 ! D96   D(24,18,19,20)         98.6836         estimate D2E/DX2                !
 ! D97   D(1,18,24,26)         -63.045          estimate D2E/DX2                !
 ! D98   D(1,18,24,27)         176.5272         estimate D2E/DX2                !
 ! D99   D(1,18,24,28)          57.4789         estimate D2E/DX2                !
 ! D100  D(17,18,24,26)        176.7613         estimate D2E/DX2                !
 ! D101  D(17,18,24,27)         56.3334         estimate D2E/DX2                !
 ! D102  D(17,18,24,28)        -62.7148         estimate D2E/DX2                !
 ! D103  D(19,18,24,26)         65.0471         estimate D2E/DX2                !
 ! D104  D(19,18,24,27)        -55.3808         estimate D2E/DX2                !
 ! D105  D(19,18,24,28)       -174.429          estimate D2E/DX2                !
 ! D106  D(18,19,20,21)         10.7788         estimate D2E/DX2                !
 ! D107  D(18,19,20,34)       -170.5496         estimate D2E/DX2                !
 ! D108  D(19,20,21,17)         -1.5155         estimate D2E/DX2                !
 ! D109  D(19,20,21,22)        174.4353         estimate D2E/DX2                !
 ! D110  D(34,20,21,17)        179.8991         estimate D2E/DX2                !
 ! D111  D(34,20,21,22)         -4.1502         estimate D2E/DX2                !
 ! D112  D(19,20,34,33)        166.832          estimate D2E/DX2                !
 ! D113  D(19,20,34,35)        -13.2452         estimate D2E/DX2                !
 ! D114  D(21,20,34,33)        -14.6788         estimate D2E/DX2                !
 ! D115  D(21,20,34,35)        165.2441         estimate D2E/DX2                !
 ! D116  D(37,32,33,34)          0.3208         estimate D2E/DX2                !
 ! D117  D(37,32,33,39)       -178.2915         estimate D2E/DX2                !
 ! D118  D(60,32,33,34)        179.7773         estimate D2E/DX2                !
 ! D119  D(60,32,33,39)          1.165          estimate D2E/DX2                !
 ! D120  D(33,32,37,36)          0.091          estimate D2E/DX2                !
 ! D121  D(33,32,37,52)        179.759          estimate D2E/DX2                !
 ! D122  D(60,32,37,36)       -179.3787         estimate D2E/DX2                !
 ! D123  D(60,32,37,52)          0.2893         estimate D2E/DX2                !
 ! D124  D(32,33,34,20)        179.2555         estimate D2E/DX2                !
 ! D125  D(32,33,34,35)         -0.6695         estimate D2E/DX2                !
 ! D126  D(39,33,34,20)         -2.1454         estimate D2E/DX2                !
 ! D127  D(39,33,34,35)        177.9296         estimate D2E/DX2                !
 ! D128  D(20,34,35,36)       -179.3008         estimate D2E/DX2                !
 ! D129  D(20,34,35,40)         -0.175          estimate D2E/DX2                !
 ! D130  D(33,34,35,36)          0.6235         estimate D2E/DX2                !
 ! D131  D(33,34,35,40)        179.7493         estimate D2E/DX2                !
 ! D132  D(34,35,36,37)         -0.2308         estimate D2E/DX2                !
 ! D133  D(34,35,36,38)        179.5292         estimate D2E/DX2                !
 ! D134  D(40,35,36,37)       -179.3609         estimate D2E/DX2                !
 ! D135  D(40,35,36,38)          0.3991         estimate D2E/DX2                !
 ! D136  D(35,36,37,32)         -0.1361         estimate D2E/DX2                !
 ! D137  D(35,36,37,52)       -179.8038         estimate D2E/DX2                !
 ! D138  D(38,36,37,32)       -179.9027         estimate D2E/DX2                !
 ! D139  D(38,36,37,52)          0.4296         estimate D2E/DX2                !
 ! D140  D(32,37,52,58)          0.1            estimate D2E/DX2                !
 ! D141  D(32,37,52,59)        179.9296         estimate D2E/DX2                !
 ! D142  D(36,37,52,58)        179.7782         estimate D2E/DX2                !
 ! D143  D(36,37,52,59)         -0.3922         estimate D2E/DX2                !
 ! D144  D(3,41,42,43)         178.7416         estimate D2E/DX2                !
 ! D145  D(3,41,42,48)          -2.6309         estimate D2E/DX2                !
 ! D146  D(46,41,42,43)         -0.765          estimate D2E/DX2                !
 ! D147  D(46,41,42,48)        177.8625         estimate D2E/DX2                !
 ! D148  D(3,41,46,45)        -178.8626         estimate D2E/DX2                !
 ! D149  D(3,41,46,50)          -0.1081         estimate D2E/DX2                !
 ! D150  D(42,41,46,45)          0.6401         estimate D2E/DX2                !
 ! D151  D(42,41,46,50)        179.3946         estimate D2E/DX2                !
 ! D152  D(41,42,43,44)          0.4333         estimate D2E/DX2                !
 ! D153  D(41,42,43,49)        179.8689         estimate D2E/DX2                !
 ! D154  D(48,42,43,44)       -178.1915         estimate D2E/DX2                !
 ! D155  D(48,42,43,49)          1.2441         estimate D2E/DX2                !
 ! D156  D(42,43,44,45)          0.0542         estimate D2E/DX2                !
 ! D157  D(42,43,44,51)        179.6705         estimate D2E/DX2                !
 ! D158  D(49,43,44,45)       -179.4816         estimate D2E/DX2                !
 ! D159  D(49,43,44,51)          0.1347         estimate D2E/DX2                !
 ! D160  D(42,43,49,53)       -179.5747         estimate D2E/DX2                !
 ! D161  D(44,43,49,53)         -0.0819         estimate D2E/DX2                !
 ! D162  D(43,44,45,46)         -0.1986         estimate D2E/DX2                !
 ! D163  D(43,44,45,47)       -179.9045         estimate D2E/DX2                !
 ! D164  D(51,44,45,46)       -179.7758         estimate D2E/DX2                !
 ! D165  D(51,44,45,47)          0.5183         estimate D2E/DX2                !
 ! D166  D(43,44,51,53)         -0.1227         estimate D2E/DX2                !
 ! D167  D(45,44,51,53)        179.467          estimate D2E/DX2                !
 ! D168  D(44,45,46,41)         -0.1487         estimate D2E/DX2                !
 ! D169  D(44,45,46,50)       -178.9021         estimate D2E/DX2                !
 ! D170  D(47,45,46,41)        179.551          estimate D2E/DX2                !
 ! D171  D(47,45,46,50)          0.7976         estimate D2E/DX2                !
 ! D172  D(43,49,53,51)          0.0188         estimate D2E/DX2                !
 ! D173  D(43,49,53,54)       -179.7025         estimate D2E/DX2                !
 ! D174  D(44,51,53,49)          0.0534         estimate D2E/DX2                !
 ! D175  D(44,51,53,54)        179.7603         estimate D2E/DX2                !
 ! D176  D(49,53,54,55)        -58.6538         estimate D2E/DX2                !
 ! D177  D(49,53,54,56)         60.9537         estimate D2E/DX2                !
 ! D178  D(49,53,54,57)       -178.9267         estimate D2E/DX2                !
 ! D179  D(51,53,54,55)        121.6507         estimate D2E/DX2                !
 ! D180  D(51,53,54,56)       -118.7418         estimate D2E/DX2                !
 ! D181  D(51,53,54,57)          1.3778         estimate D2E/DX2                !
 --------------------------------------------------------------------------------
 Trust Radius=3.00D-01 FncErr=1.00D-07 GrdErr=1.00D-06
 Number of steps in this run=    360 maximum allowed number of steps=    360.
 GradGradGradGradGradGradGradGradGradGradGradGradGradGradGradGradGradGrad

 Leave Link  103 at Thu Apr  8 17:46:48 2021, MaxMem=  1019871232 cpu:         0.0
 (Enter /opt/g09-n4-gcc-10.2.0-csize-1024-kb-2021-01-06/links/l202.exe)
 Stoichiometry    C29H18F6N2O2S3
 Framework group  C1[X(C29H18F6N2O2S3)]
 Deg. of freedom   174
 Full point group                 C1      NOp   1
 Largest Abelian subgroup         C1      NOp   1
 Largest concise Abelian subgroup C1      NOp   1
                         Standard orientation:                         
 ---------------------------------------------------------------------
 Center     Atomic      Atomic             Coordinates (Angstroms)
 Number     Number       Type             X           Y           Z
 ---------------------------------------------------------------------
      1          6           0        0.220575   -0.458600   -0.422024
      2         16           0        1.397243   -1.876875   -0.074645
      3          6           0        2.794355   -0.775838   -0.028755
      4          6           0        2.437593    0.560531   -0.049307
      5          6           0        1.043799    0.800984   -0.095536
      6          6           0        0.338931    1.974479    0.052371
      7          6           0       -1.095921    1.992136    0.086261
      8          6           0       -1.601553    3.401251    0.062527
      9          6           0       -0.339631    4.250341   -0.272423
     10          6           0        0.854022    3.369942    0.202197
     11          9           0        1.129098    3.682165    1.518980
     12          9           0        1.993577    3.626939   -0.515980
     13          9           0       -0.256018    4.401726   -1.628451
     14          9           0       -0.362378    5.473500    0.309767
     15          9           0       -2.604942    3.606506   -0.854141
     16          9           0       -2.100327    3.794635    1.284932
     17          6           0       -1.833566    0.837308    0.187419
     18          6           0       -1.054393   -0.459625    0.457576
     19         16           0       -2.282439   -1.820252    0.049030
     20          6           0       -3.641547   -0.665405    0.088542
     21          6           0       -3.234778    0.653308    0.141029
     22          1           0       -3.921606    1.491846    0.082820
     23          1           0        3.157035    1.368002    0.042163
     24          6           0       -0.758118   -0.525965    1.982036
     25          6           0       -0.075991   -0.449976   -1.947789
     26          1           0       -0.252534   -1.459782    2.244427
     27          1           0       -1.702976   -0.459970    2.530889
     28          1           0       -0.120674    0.317666    2.272106
     29          1           0        0.870296   -0.383517   -2.494055
     30          1           0       -0.691559    0.422249   -2.198357
     31          1           0       -0.606822   -1.356823   -2.250145
     32          6           0       -7.411291   -0.692858    0.283847
     33          6           0       -6.091762   -0.260211    0.344733
     34          6           0       -5.019791   -1.137850    0.036001
     35          6           0       -5.323765   -2.474099   -0.323217
     36          6           0       -6.641321   -2.918818   -0.386634
     37          6           0       -7.668811   -2.019851   -0.082977
     38          1           0       -6.891882   -3.936881   -0.667301
     39          1           0       -5.885491    0.760236    0.655921
     40          1           0       -4.517872   -3.163629   -0.568001
     41          6           0        4.148404   -1.317870    0.054248
     42          6           0        5.257650   -0.498800   -0.257810
     43          6           0        6.539426   -1.034961   -0.144218
     44          6           0        6.758630   -2.383252    0.267478
     45          6           0        5.649246   -3.195689    0.566423
     46          6           0        4.369913   -2.664545    0.457528
     47          1           0        5.810716   -4.222547    0.881849
     48          1           0        5.111114    0.521675   -0.601127
     49         16           0        8.087140   -0.272620   -0.461214
     50          1           0        3.513700   -3.289140    0.706586
     51          7           0        8.084958   -2.786267    0.330102
     52          7           0       -9.065603   -2.484283   -0.143625
     53          6           0        8.884742   -1.814297   -0.015337
     54          6           0       10.381106   -1.917834   -0.050000
     55          1           0       10.767313   -1.698061   -1.053959
     56          1           0       10.838957   -1.203627    0.646602
     57          1           0       10.669648   -2.933245    0.233943
     58          8           0       -9.957367   -1.663040    0.135878
     59          8           0       -9.265210   -3.667390   -0.473641
     60          1           0       -8.241342   -0.034069    0.520587
 ---------------------------------------------------------------------
 Rotational constants (GHZ):      0.1174489      0.0304246      0.0249041
 Leave Link  202 at Thu Apr  8 17:46:48 2021, MaxMem=  1019871232 cpu:         0.0
 (Enter /opt/g09-n4-gcc-10.2.0-csize-1024-kb-2021-01-06/links/l301.exe)
 Standard basis: 6-31G(d,p) (6D, 7F)
 Ernie: Thresh=  0.10000D-02 Tol=  0.10000D-05 Strict=F.
 There are   732 symmetry adapted cartesian basis functions of A   symmetry.
 There are   732 symmetry adapted basis functions of A   symmetry.
   732 basis functions,  1374 primitive gaussians,   732 cartesian basis functions
   162 alpha electrons      162 beta electrons
       nuclear repulsion energy      5434.8400721561 Hartrees.
 IExCor=  402 DFT=T Ex+Corr=B3LYP ExCW=0 ScaHFX=  0.200000
 ScaDFX=  0.800000  0.720000  1.000000  0.810000 ScalE2=  1.000000  1.000000
 IRadAn=      0 IRanWt=     -1 IRanGd=            0 ICorTp=0 IEmpDi=  4
 NAtoms=   60 NActive=   60 NUniq=   60 SFac= 1.00D+00 NAtFMM=   60 NAOKFM=T Big=T
 Integral buffers will be    131072 words long.
 Raffenetti 2 integral format.
 Two-electron integral symmetry is turned on.
 Leave Link  301 at Thu Apr  8 17:46:49 2021, MaxMem=  1019871232 cpu:         0.1
 (Enter /opt/g09-n4-gcc-10.2.0-csize-1024-kb-2021-01-06/links/l302.exe)
 NPDir=0 NMtPBC=     1 NCelOv=     1 NCel=       1 NClECP=     1 NCelD=      1
         NCelK=      1 NCelE2=     1 NClLst=     1 CellRange=     0.0.
 One-electron integrals computed using PRISM.
 NBasis=   732 RedAO= T EigKep=  3.98D-04  NBF=   732
 NBsUse=   732 1.00D-06 EigRej= -1.00D+00 NBFU=   732
 Precomputing XC quadrature grid using
 IXCGrd= 4 IRadAn=           0 IRanWt=          -1 IRanGd=           0 AccXCQ= 0.00D+00.
 Generated NRdTot=       0 NPtTot=           0 NUsed=           0 NTot=          32
 NSgBfM=   611   611   618   625   626 MxSgAt=    60 MxSgA2=    60.
 Leave Link  302 at Thu Apr  8 17:46:52 2021, MaxMem=  1019871232 cpu:         8.1
 (Enter /opt/g09-n4-gcc-10.2.0-csize-1024-kb-2021-01-06/links/l303.exe)
 DipDrv:  MaxL=1.
 Leave Link  303 at Thu Apr  8 17:46:53 2021, MaxMem=  1019871232 cpu:         0.3
 (Enter /opt/g09-n4-gcc-10.2.0-csize-1024-kb-2021-01-06/links/l401.exe)
 ExpMin= 1.17D-01 ExpMax= 2.19D+04 ExpMxC= 3.30D+03 IAcc=1 IRadAn=         1 AccDes= 0.00D+00
 Harris functional with IExCor=  402 and IRadAn=       1 diagonalized for initial guess.
 HarFok:  IExCor=  402 AccDes= 0.00D+00 IRadAn=         1 IDoV= 1 UseB2=F ITyADJ=14
 ICtDFT=  3500011 ScaDFX=  1.000000  1.000000  1.000000  1.000000
 FoFCou: FMM=F IPFlag=           0 FMFlag=      100000 FMFlg1=        2001
         NFxFlg=           0 DoJE=T BraDBF=F KetDBF=T FulRan=T
         wScrn=  0.000000 ICntrl=     500 IOpCl=  0 I1Cent=   200000004 NGrid=           0
         NMat0=    1 NMatS0=      1 NMatT0=    0 NMatD0=    1 NMtDS0=    0 NMtDT0=    0
 Petite list used in FoFCou.
 Harris En= -3169.19719776213    
 JPrj=0 DoOrth=F DoCkMO=F.
 Leave Link  401 at Thu Apr  8 17:46:57 2021, MaxMem=  1019871232 cpu:        25.4
 (Enter /opt/g09-n4-gcc-10.2.0-csize-1024-kb-2021-01-06/links/l502.exe)
 Closed shell SCF:
 Using DIIS extrapolation, IDIIS=  1040.
 Integral symmetry usage will be decided dynamically.
 IVT=     1637347 IEndB=     1637347 NGot=  1019871232 MDV=  1018787082
 LenX=  1018787082 LenY=  1018250526
 Requested convergence on RMS density matrix=1.00D-08 within 128 cycles.
 Requested convergence on MAX density matrix=1.00D-06.
 Requested convergence on             energy=1.00D-06.
 No special actions if energy rises.
 Fock matrices will be formed incrementally for  20 cycles.
 Integral accuracy reduced to 1.0D-05 until final iterations.

 Cycle   1  Pass 0  IDiag  1:
 FoFJK:  IHMeth= 1 ICntrl=       0 DoSepK=F KAlg= 0 I1Cent=   0 FoldK=F
 IRaf= 650000000 NMat=   1 IRICut=       1 DoRegI=T DoRafI=F ISym2E= 0.
 FoFCou: FMM=T IPFlag=           0 FMFlag=      100000 FMFlg1=        2001
         NFxFlg=           0 DoJE=F BraDBF=F KetDBF=F FulRan=T
         wScrn=  0.000000 ICntrl=       0 IOpCl=  0 I1Cent=           0 NGrid=           0
         NMat0=    1 NMatS0=      1 NMatT0=    0 NMatD0=    1 NMtDS0=    0 NMtDT0=    0
 Symmetry not used in FoFCou.
 FMM levels:  10  Number of levels for PrismC:   9
 E= -3168.40276773915    
 DIIS: error= 3.63D-02 at cycle   1 NSaved=   1.
 NSaved= 1 IEnMin= 1 EnMin= -3168.40276773915     IErMin= 1 ErrMin= 3.63D-02
 ErrMax= 3.63D-02  0.00D+00 EMaxC= 1.00D-01 BMatC= 1.07D+00 BMatP= 1.07D+00
 IDIUse=3 WtCom= 6.37D-01 WtEn= 3.63D-01
 Coeff-Com:  0.100D+01
 Coeff-En:   0.100D+01
 Coeff:      0.100D+01
 Gap=     0.119 Goal=   None    Shift=    0.000
 GapD=    0.119 DampG=1.000 DampE=0.500 DampFc=0.5000 IDamp=-1.
 Damping current iteration by 5.00D-01
 RMSDP=4.02D-03 MaxDP=3.99D-01              OVMax= 7.77D-01

 Cycle   2  Pass 0  IDiag  1:
 RMSU=  2.00D-03    CP:  9.87D-01
 E= -3168.42489038616     Delta-E=       -0.022122647008 Rises=F Damp=T
 DIIS: error= 1.62D-02 at cycle   2 NSaved=   2.
 NSaved= 2 IEnMin= 2 EnMin= -3168.42489038616     IErMin= 2 ErrMin= 1.62D-02
 ErrMax= 1.62D-02  0.00D+00 EMaxC= 1.00D-01 BMatC= 2.47D-01 BMatP= 1.07D+00
 IDIUse=3 WtCom= 8.38D-01 WtEn= 1.62D-01
 Coeff-Com:  0.265D+00 0.735D+00
 Coeff-En:   0.491D+00 0.509D+00
 Coeff:      0.301D+00 0.699D+00
 Gap=    -0.113 Goal=   None    Shift=    0.000
 RMSDP=2.47D-03 MaxDP=2.31D-01 DE=-2.21D-02 OVMax= 8.92D-01

 Cycle   3  Pass 0  IDiag  1:
 RMSU=  2.27D-03    CP:  9.76D-01  5.22D-01
 E= -3167.30358110258     Delta-E=        1.121309283579 Rises=F Damp=F
 DIIS: error= 4.10D-02 at cycle   3 NSaved=   3.
 NSaved= 3 IEnMin= 2 EnMin= -3168.42489038616     IErMin= 2 ErrMin= 1.62D-02
 ErrMax= 4.10D-02  0.00D+00 EMaxC= 1.00D-01 BMatC= 9.07D-01 BMatP= 2.47D-01
 IDIUse=2 WtCom= 0.00D+00 WtEn= 1.00D+00
 EnCoef did     4 forward-backward iterations
 Coeff-En:   0.326D+00 0.484D+00 0.191D+00
 Coeff:      0.326D+00 0.484D+00 0.191D+00
 Gap=     0.061 Goal=   None    Shift=    0.000
 RMSDP=2.25D-03 MaxDP=2.59D-01 DE= 1.12D+00 OVMax= 9.13D-01

 Cycle   4  Pass 0  IDiag  1:
 RMSU=  9.80D-04    CP:  9.77D-01  8.62D-01  1.60D-01
 E= -3169.22086633103     Delta-E=       -1.917285228450 Rises=F Damp=F
 DIIS: error= 1.42D-02 at cycle   4 NSaved=   4.
 NSaved= 4 IEnMin= 4 EnMin= -3169.22086633103     IErMin= 4 ErrMin= 1.42D-02
 ErrMax= 1.42D-02  0.00D+00 EMaxC= 1.00D-01 BMatC= 1.31D-01 BMatP= 2.47D-01
 IDIUse=3 WtCom= 8.58D-01 WtEn= 1.42D-01
 Coeff-Com:  0.157D+00 0.112D+00 0.169D+00 0.562D+00
 Coeff-En:   0.000D+00 0.000D+00 0.115D+00 0.885D+00
 Coeff:      0.135D+00 0.957D-01 0.162D+00 0.607D+00
 Gap=     0.063 Goal=   None    Shift=    0.000
 RMSDP=8.39D-04 MaxDP=5.54D-02 DE=-1.92D+00 OVMax= 3.30D-01

 Cycle   5  Pass 0  IDiag  1:
 RMSU=  5.38D-04    CP:  9.81D-01  5.73D-01  2.16D-01  7.53D-01
 E= -3169.38303219851     Delta-E=       -0.162165867478 Rises=F Damp=F
 DIIS: error= 4.74D-03 at cycle   5 NSaved=   5.
 NSaved= 5 IEnMin= 5 EnMin= -3169.38303219851     IErMin= 5 ErrMin= 4.74D-03
 ErrMax= 4.74D-03  0.00D+00 EMaxC= 1.00D-01 BMatC= 1.39D-02 BMatP= 1.31D-01
 IDIUse=3 WtCom= 9.53D-01 WtEn= 4.74D-02
 Coeff-Com:  0.285D-01-0.451D-02 0.677D-01 0.276D+00 0.633D+00
 Coeff-En:   0.000D+00 0.000D+00 0.000D+00 0.000D+00 0.100D+01
 Coeff:      0.272D-01-0.429D-02 0.645D-01 0.262D+00 0.650D+00
 Gap=     0.069 Goal=   None    Shift=    0.000
 RMSDP=3.57D-04 MaxDP=2.75D-02 DE=-1.62D-01 OVMax= 5.83D-02

 Cycle   6  Pass 0  IDiag  1:
 RMSU=  3.00D-04    CP:  9.81D-01  6.29D-01  2.15D-01  7.90D-01  7.13D-01
 E= -3169.38480069737     Delta-E=       -0.001768498867 Rises=F Damp=F
 DIIS: error= 8.02D-03 at cycle   6 NSaved=   6.
 NSaved= 6 IEnMin= 6 EnMin= -3169.38480069737     IErMin= 5 ErrMin= 4.74D-03
 ErrMax= 8.02D-03  0.00D+00 EMaxC= 1.00D-01 BMatC= 1.26D-02 BMatP= 1.39D-02
 IDIUse=3 WtCom= 9.53D-01 WtEn= 4.74D-02
 Coeff-Com: -0.103D-01-0.303D-02 0.238D-01 0.556D-01 0.503D+00 0.431D+00
 Coeff-En:   0.000D+00 0.000D+00 0.000D+00 0.000D+00 0.474D+00 0.526D+00
 Coeff:     -0.978D-02-0.289D-02 0.227D-01 0.530D-01 0.501D+00 0.435D+00
 Gap=     0.072 Goal=   None    Shift=    0.000
 RMSDP=2.12D-04 MaxDP=2.10D-02 DE=-1.77D-03 OVMax= 6.43D-02

 Cycle   7  Pass 0  IDiag  1:
 RMSU=  1.16D-04    CP:  9.81D-01  6.13D-01  2.28D-01  7.51D-01  9.15D-01
                    CP:  5.73D-01
 E= -3169.39640905665     Delta-E=       -0.011608359273 Rises=F Damp=F
 DIIS: error= 3.46D-03 at cycle   7 NSaved=   7.
 NSaved= 7 IEnMin= 7 EnMin= -3169.39640905665     IErMin= 7 ErrMin= 3.46D-03
 ErrMax= 3.46D-03  0.00D+00 EMaxC= 1.00D-01 BMatC= 1.77D-03 BMatP= 1.26D-02
 IDIUse=3 WtCom= 9.65D-01 WtEn= 3.46D-02
 Coeff-Com: -0.119D-01 0.854D-02 0.781D-02-0.146D-01 0.268D+00 0.321D+00
 Coeff-Com:  0.420D+00
 Coeff-En:   0.000D+00 0.000D+00 0.000D+00 0.000D+00 0.000D+00 0.798D-01
 Coeff-En:   0.920D+00
 Coeff:     -0.114D-01 0.825D-02 0.754D-02-0.141D-01 0.259D+00 0.313D+00
 Coeff:      0.438D+00
 Gap=     0.073 Goal=   None    Shift=    0.000
 RMSDP=7.20D-05 MaxDP=1.14D-02 DE=-1.16D-02 OVMax= 2.05D-02

 Cycle   8  Pass 0  IDiag  1:
 RMSU=  4.39D-05    CP:  9.81D-01  6.08D-01  2.28D-01  7.48D-01  9.40D-01
                    CP:  6.15D-01  5.47D-01
 E= -3169.39782909873     Delta-E=       -0.001420042086 Rises=F Damp=F
 DIIS: error= 1.42D-03 at cycle   8 NSaved=   8.
 NSaved= 8 IEnMin= 8 EnMin= -3169.39782909873     IErMin= 8 ErrMin= 1.42D-03
 ErrMax= 1.42D-03  0.00D+00 EMaxC= 1.00D-01 BMatC= 2.58D-04 BMatP= 1.77D-03
 IDIUse=3 WtCom= 9.86D-01 WtEn= 1.42D-02
 Coeff-Com: -0.715D-02 0.861D-02 0.214D-02-0.207D-01 0.116D+00 0.165D+00
 Coeff-Com:  0.313D+00 0.423D+00
 Coeff-En:   0.000D+00 0.000D+00 0.000D+00 0.000D+00 0.000D+00 0.000D+00
 Coeff-En:   0.111D+00 0.889D+00
 Coeff:     -0.705D-02 0.848D-02 0.211D-02-0.204D-01 0.115D+00 0.162D+00
 Coeff:      0.310D+00 0.430D+00
 Gap=     0.073 Goal=   None    Shift=    0.000
 RMSDP=2.72D-05 MaxDP=3.94D-03 DE=-1.42D-03 OVMax= 7.72D-03

 Cycle   9  Pass 0  IDiag  1:
 RMSU=  1.85D-05    CP:  9.81D-01  6.08D-01  2.28D-01  7.46D-01  9.39D-01
                    CP:  6.42D-01  6.09D-01  6.19D-01
 E= -3169.39804270958     Delta-E=       -0.000213610851 Rises=F Damp=F
 DIIS: error= 4.42D-04 at cycle   9 NSaved=   9.
 NSaved= 9 IEnMin= 9 EnMin= -3169.39804270958     IErMin= 9 ErrMin= 4.42D-04
 ErrMax= 4.42D-04  0.00D+00 EMaxC= 1.00D-01 BMatC= 3.10D-05 BMatP= 2.58D-04
 IDIUse=3 WtCom= 9.96D-01 WtEn= 4.42D-03
 Coeff-Com: -0.232D-02 0.358D-02 0.847D-04-0.747D-02 0.312D-01 0.512D-01
 Coeff-Com:  0.121D+00 0.286D+00 0.517D+00
 Coeff-En:   0.000D+00 0.000D+00 0.000D+00 0.000D+00 0.000D+00 0.000D+00
 Coeff-En:   0.000D+00 0.103D+00 0.897D+00
 Coeff:     -0.230D-02 0.356D-02 0.843D-04-0.744D-02 0.310D-01 0.510D-01
 Coeff:      0.120D+00 0.285D+00 0.519D+00
 Gap=     0.073 Goal=   None    Shift=    0.000
 RMSDP=1.21D-05 MaxDP=1.05D-03 DE=-2.14D-04 OVMax= 3.70D-03

 Cycle  10  Pass 0  IDiag  1:
 RMSU=  8.66D-06    CP:  9.81D-01  6.08D-01  2.28D-01  7.43D-01  9.43D-01
                    CP:  6.40D-01  6.41D-01  6.78D-01  6.92D-01
 E= -3169.39806801389     Delta-E=       -0.000025304307 Rises=F Damp=F
 DIIS: error= 8.91D-05 at cycle  10 NSaved=  10.
 NSaved=10 IEnMin=10 EnMin= -3169.39806801389     IErMin=10 ErrMin= 8.91D-05
 ErrMax= 8.91D-05  0.00D+00 EMaxC= 1.00D-01 BMatC= 7.29D-06 BMatP= 3.10D-05
 IDIUse=1 WtCom= 1.00D+00 WtEn= 0.00D+00
 Coeff-Com: -0.329D-03 0.967D-03-0.537D-03-0.939D-03 0.250D-02 0.921D-02
 Coeff-Com:  0.332D-01 0.136D+00 0.371D+00 0.449D+00
 Coeff:     -0.329D-03 0.967D-03-0.537D-03-0.939D-03 0.250D-02 0.921D-02
 Coeff:      0.332D-01 0.136D+00 0.371D+00 0.449D+00
 Gap=     0.073 Goal=   None    Shift=    0.000
 RMSDP=5.70D-06 MaxDP=4.89D-04 DE=-2.53D-05 OVMax= 1.51D-03

 Initial convergence to 1.0D-05 achieved.  Increase integral accuracy.
 Cycle  11  Pass 1  IDiag  1:
 E= -3169.39814262536     Delta-E=       -0.000074611471 Rises=F Damp=F
 DIIS: error= 1.15D-04 at cycle   1 NSaved=   1.
 NSaved= 1 IEnMin= 1 EnMin= -3169.39814262536     IErMin= 1 ErrMin= 1.15D-04
 ErrMax= 1.15D-04  0.00D+00 EMaxC= 1.00D-01 BMatC= 1.03D-05 BMatP= 1.03D-05
 IDIUse=3 WtCom= 9.99D-01 WtEn= 1.15D-03
 Coeff-Com:  0.100D+01
 Coeff-En:   0.100D+01
 Coeff:      0.100D+01
 Gap=     0.073 Goal=   None    Shift=    0.000
 RMSDP=5.70D-06 MaxDP=4.89D-04 DE=-7.46D-05 OVMax= 1.73D-03

 Cycle  12  Pass 1  IDiag  1:
 RMSU=  6.26D-05    CP:  1.00D+00
 E= -3169.39814353783     Delta-E=       -0.000000912465 Rises=F Damp=F
 DIIS: error= 1.63D-04 at cycle   2 NSaved=   2.
 NSaved= 2 IEnMin= 2 EnMin= -3169.39814353783     IErMin= 1 ErrMin= 1.15D-04
 ErrMax= 1.63D-04  0.00D+00 EMaxC= 1.00D-01 BMatC= 7.57D-06 BMatP= 1.03D-05
 IDIUse=3 WtCom= 9.98D-01 WtEn= 1.63D-03
 Coeff-Com:  0.442D+00 0.558D+00
 Coeff-En:   0.462D+00 0.538D+00
 Coeff:      0.442D+00 0.558D+00
 Gap=     0.073 Goal=   None    Shift=    0.000
 RMSDP=9.21D-06 MaxDP=8.43D-04 DE=-9.12D-07 OVMax= 2.59D-03

 Cycle  13  Pass 1  IDiag  1:
 RMSU=  9.19D-06    CP:  1.00D+00  9.93D-01
 E= -3169.39814294820     Delta-E=        0.000000589627 Rises=F Damp=F
 DIIS: error= 2.23D-04 at cycle   3 NSaved=   3.
 NSaved= 3 IEnMin= 2 EnMin= -3169.39814353783     IErMin= 1 ErrMin= 1.15D-04
 ErrMax= 2.23D-04  0.00D+00 EMaxC= 1.00D-01 BMatC= 8.64D-06 BMatP= 7.57D-06
 IDIUse=3 WtCom= 4.01D-01 WtEn= 5.99D-01
 Coeff-Com:  0.349D-01 0.505D+00 0.460D+00
 Coeff-En:   0.000D+00 0.512D+00 0.488D+00
 Coeff:      0.140D-01 0.509D+00 0.477D+00
 Gap=     0.073 Goal=   None    Shift=    0.000
 RMSDP=5.08D-06 MaxDP=5.51D-04 DE= 5.90D-07 OVMax= 1.60D-03

 Cycle  14  Pass 1  IDiag  1:
 RMSU=  2.34D-06    CP:  1.00D+00  1.00D+00  5.16D-01
 E= -3169.39815125217     Delta-E=       -0.000008303974 Rises=F Damp=F
 DIIS: error= 7.84D-05 at cycle   4 NSaved=   4.
 NSaved= 4 IEnMin= 4 EnMin= -3169.39815125217     IErMin= 4 ErrMin= 7.84D-05
 ErrMax= 7.84D-05  0.00D+00 EMaxC= 1.00D-01 BMatC= 7.99D-07 BMatP= 7.57D-06
 IDIUse=1 WtCom= 1.00D+00 WtEn= 0.00D+00
 Coeff-Com: -0.581D-03 0.332D+00 0.338D+00 0.331D+00
 Coeff:     -0.581D-03 0.332D+00 0.338D+00 0.331D+00
 Gap=     0.073 Goal=   None    Shift=    0.000
 RMSDP=1.43D-06 MaxDP=2.14D-04 DE=-8.30D-06 OVMax= 3.91D-04

 Cycle  15  Pass 1  IDiag  1:
 RMSU=  5.64D-07    CP:  1.00D+00  1.00D+00  5.02D-01  4.41D-01
 E= -3169.39815198207     Delta-E=       -0.000000729899 Rises=F Damp=F
 DIIS: error= 1.51D-05 at cycle   5 NSaved=   5.
 NSaved= 5 IEnMin= 5 EnMin= -3169.39815198207     IErMin= 5 ErrMin= 1.51D-05
 ErrMax= 1.51D-05  0.00D+00 EMaxC= 1.00D-01 BMatC= 4.33D-08 BMatP= 7.99D-07
 IDIUse=1 WtCom= 1.00D+00 WtEn= 0.00D+00
 Coeff-Com: -0.302D-02 0.202D+00 0.209D+00 0.230D+00 0.361D+00
 Coeff:     -0.302D-02 0.202D+00 0.209D+00 0.230D+00 0.361D+00
 Gap=     0.073 Goal=   None    Shift=    0.000
 RMSDP=3.60D-07 MaxDP=4.39D-05 DE=-7.30D-07 OVMax= 9.56D-05

 Cycle  16  Pass 1  IDiag  1:
 RMSU=  1.79D-07    CP:  1.00D+00  1.00D+00  5.14D-01  4.10D-01  4.96D-01
 E= -3169.39815202155     Delta-E=       -0.000000039476 Rises=F Damp=F
 DIIS: error= 3.22D-06 at cycle   6 NSaved=   6.
 NSaved= 6 IEnMin= 6 EnMin= -3169.39815202155     IErMin= 6 ErrMin= 3.22D-06
 ErrMax= 3.22D-06  0.00D+00 EMaxC= 1.00D-01 BMatC= 2.28D-09 BMatP= 4.33D-08
 IDIUse=1 WtCom= 1.00D+00 WtEn= 0.00D+00
 Coeff-Com: -0.199D-02 0.112D+00 0.117D+00 0.126D+00 0.227D+00 0.420D+00
 Coeff:     -0.199D-02 0.112D+00 0.117D+00 0.126D+00 0.227D+00 0.420D+00
 Gap=     0.073 Goal=   None    Shift=    0.000
 RMSDP=1.12D-07 MaxDP=8.52D-06 DE=-3.95D-08 OVMax= 3.81D-05

 Cycle  17  Pass 1  IDiag  1:
 RMSU=  9.06D-08    CP:  1.00D+00  1.00D+00  5.10D-01  4.22D-01  5.16D-01
                    CP:  7.20D-01
 E= -3169.39815202354     Delta-E=       -0.000000001994 Rises=F Damp=F
 DIIS: error= 5.98D-07 at cycle   7 NSaved=   7.
 NSaved= 7 IEnMin= 7 EnMin= -3169.39815202354     IErMin= 7 ErrMin= 5.98D-07
 ErrMax= 5.98D-07  0.00D+00 EMaxC= 1.00D-01 BMatC= 4.21D-10 BMatP= 2.28D-09
 IDIUse=1 WtCom= 1.00D+00 WtEn= 0.00D+00
 Coeff-Com: -0.599D-03 0.269D-01 0.281D-01 0.264D-01 0.579D-01 0.303D+00
 Coeff-Com:  0.559D+00
 Coeff:     -0.599D-03 0.269D-01 0.281D-01 0.264D-01 0.579D-01 0.303D+00
 Coeff:      0.559D+00
 Gap=     0.073 Goal=   None    Shift=    0.000
 RMSDP=4.88D-08 MaxDP=2.70D-06 DE=-1.99D-09 OVMax= 1.13D-05

 Cycle  18  Pass 1  IDiag  1:
 RMSU=  2.84D-08    CP:  1.00D+00  1.00D+00  5.11D-01  4.14D-01  5.25D-01
                    CP:  8.57D-01  7.47D-01
 E= -3169.39815202377     Delta-E=       -0.000000000231 Rises=F Damp=F
 DIIS: error= 2.29D-07 at cycle   8 NSaved=   8.
 NSaved= 8 IEnMin= 8 EnMin= -3169.39815202377     IErMin= 8 ErrMin= 2.29D-07
 ErrMax= 2.29D-07  0.00D+00 EMaxC= 1.00D-01 BMatC= 5.97D-11 BMatP= 4.21D-10
 IDIUse=1 WtCom= 1.00D+00 WtEn= 0.00D+00
 Coeff-Com:  0.103D-04-0.523D-02-0.511D-02-0.875D-02-0.115D-01 0.118D+00
 Coeff-Com:  0.357D+00 0.555D+00
 Coeff:      0.103D-04-0.523D-02-0.511D-02-0.875D-02-0.115D-01 0.118D+00
 Coeff:      0.357D+00 0.555D+00
 Gap=     0.073 Goal=   None    Shift=    0.000
 RMSDP=1.67D-08 MaxDP=1.15D-06 DE=-2.31D-10 OVMax= 5.10D-06

 Cycle  19  Pass 1  IDiag  1:
 RMSU=  1.16D-08    CP:  1.00D+00  1.00D+00  5.11D-01  4.16D-01  5.28D-01
                    CP:  8.80D-01  8.43D-01  7.85D-01
 E= -3169.39815202384     Delta-E=       -0.000000000067 Rises=F Damp=F
 DIIS: error= 1.17D-07 at cycle   9 NSaved=   9.
 NSaved= 9 IEnMin= 9 EnMin= -3169.39815202384     IErMin= 9 ErrMin= 1.17D-07
 ErrMax= 1.17D-07  0.00D+00 EMaxC= 1.00D-01 BMatC= 9.53D-12 BMatP= 5.97D-11
 IDIUse=1 WtCom= 1.00D+00 WtEn= 0.00D+00
 Coeff-Com:  0.908D-04-0.717D-02-0.714D-02-0.905D-02-0.161D-01 0.308D-01
 Coeff-Com:  0.135D+00 0.345D+00 0.529D+00
 Coeff:      0.908D-04-0.717D-02-0.714D-02-0.905D-02-0.161D-01 0.308D-01
 Coeff:      0.135D+00 0.345D+00 0.529D+00
 Gap=     0.073 Goal=   None    Shift=    0.000
 RMSDP=5.81D-09 MaxDP=4.68D-07 DE=-6.73D-11 OVMax= 1.17D-06

 SCF Done:  E(RB3LYP) =  -3169.39815202     A.U. after   19 cycles
            NFock= 19  Conv=0.58D-08     -V/T= 2.0067
 KE= 3.148260091753D+03 PE=-1.832629131145D+04 EE= 6.573792995521D+03
 Leave Link  502 at Thu Apr  8 17:50:05 2021, MaxMem=  1019871232 cpu:      1365.3
 (Enter /opt/g09-n4-gcc-10.2.0-csize-1024-kb-2021-01-06/links/l601.exe)
 Copying SCF densities to generalized density rwf, IOpCl= 0 IROHF=0.

 **********************************************************************

            Population analysis using the SCF density.

 **********************************************************************

 Orbital symmetries:
       Occupied  (A) (A) (A) (A) (A) (A) (A) (A) (A) (A) (A) (A)
                 (A) (A) (A) (A) (A) (A) (A) (A) (A) (A) (A) (A)
                 (A) (A) (A) (A) (A) (A) (A) (A) (A) (A) (A) (A)
                 (A) (A) (A) (A) (A) (A) (A) (A) (A) (A) (A) (A)
                 (A) (A) (A) (A) (A) (A) (A) (A) (A) (A) (A) (A)
                 (A) (A) (A) (A) (A) (A) (A) (A) (A) (A) (A) (A)
                 (A) (A) (A) (A) (A) (A) (A) (A) (A) (A) (A) (A)
                 (A) (A) (A) (A) (A) (A) (A) (A) (A) (A) (A) (A)
                 (A) (A) (A) (A) (A) (A) (A) (A) (A) (A) (A) (A)
                 (A) (A) (A) (A) (A) (A) (A) (A) (A) (A) (A) (A)
                 (A) (A) (A) (A) (A) (A) (A) (A) (A) (A) (A) (A)
                 (A) (A) (A) (A) (A) (A) (A) (A) (A) (A) (A) (A)
                 (A) (A) (A) (A) (A) (A) (A) (A) (A) (A) (A) (A)
                 (A) (A) (A) (A) (A) (A)
       Virtual   (A) (A) (A) (A) (A) (A) (A) (A) (A) (A) (A) (A)
                 (A) (A) (A) (A) (A) (A) (A) (A) (A) (A) (A) (A)
                 (A) (A) (A) (A) (A) (A) (A) (A) (A) (A) (A) (A)
                 (A) (A) (A) (A) (A) (A) (A) (A) (A) (A) (A) (A)
                 (A) (A) (A) (A) (A) (A) (A) (A) (A) (A) (A) (A)
                 (A) (A) (A) (A) (A) (A) (A) (A) (A) (A) (A) (A)
                 (A) (A) (A) (A) (A) (A) (A) (A) (A) (A) (A) (A)
                 (A) (A) (A) (A) (A) (A) (A) (A) (A) (A) (A) (A)
                 (A) (A) (A) (A) (A) (A) (A) (A) (A) (A) (A) (A)
                 (A) (A) (A) (A) (A) (A) (A) (A) (A) (A) (A) (A)
                 (A) (A) (A) (A) (A) (A) (A) (A) (A) (A) (A) (A)
                 (A) (A) (A) (A) (A) (A) (A) (A) (A) (A) (A) (A)
                 (A) (A) (A) (A) (A) (A) (A) (A) (A) (A) (A) (A)
                 (A) (A) (A) (A) (A) (A) (A) (A) (A) (A) (A) (A)
                 (A) (A) (A) (A) (A) (A) (A) (A) (A) (A) (A) (A)
                 (A) (A) (A) (A) (A) (A) (A) (A) (A) (A) (A) (A)
                 (A) (A) (A) (A) (A) (A) (A) (A) (A) (A) (A) (A)
                 (A) (A) (A) (A) (A) (A) (A) (A) (A) (A) (A) (A)
                 (A) (A) (A) (A) (A) (A) (A) (A) (A) (A) (A) (A)
                 (A) (A) (A) (A) (A) (A) (A) (A) (A) (A) (A) (A)
                 (A) (A) (A) (A) (A) (A) (A) (A) (A) (A) (A) (A)
                 (A) (A) (A) (A) (A) (A) (A) (A) (A) (A) (A) (A)
                 (A) (A) (A) (A) (A) (A) (A) (A) (A) (A) (A) (A)
                 (A) (A) (A) (A) (A) (A) (A) (A) (A) (A) (A) (A)
                 (A) (A) (A) (A) (A) (A) (A) (A) (A) (A) (A) (A)
                 (A) (A) (A) (A) (A) (A) (A) (A) (A) (A) (A) (A)
                 (A) (A) (A) (A) (A) (A) (A) (A) (A) (A) (A) (A)
                 (A) (A) (A) (A) (A) (A) (A) (A) (A) (A) (A) (A)
                 (A) (A) (A) (A) (A) (A) (A) (A) (A) (A) (A) (A)
                 (A) (A) (A) (A) (A) (A) (A) (A) (A) (A) (A) (A)
                 (A) (A) (A) (A) (A) (A) (A) (A) (A) (A) (A) (A)
                 (A) (A) (A) (A) (A) (A) (A) (A) (A) (A) (A) (A)
                 (A) (A) (A) (A) (A) (A) (A) (A) (A) (A) (A) (A)
                 (A) (A) (A) (A) (A) (A) (A) (A) (A) (A) (A) (A)
                 (A) (A) (A) (A) (A) (A) (A) (A) (A) (A) (A) (A)
                 (A) (A) (A) (A) (A) (A) (A) (A) (A) (A) (A) (A)
                 (A) (A) (A) (A) (A) (A) (A) (A) (A) (A) (A) (A)
                 (A) (A) (A) (A) (A) (A) (A) (A) (A) (A) (A) (A)
                 (A) (A) (A) (A) (A) (A) (A) (A) (A) (A) (A) (A)
                 (A) (A) (A) (A) (A) (A) (A) (A) (A) (A) (A) (A)
                 (A) (A) (A) (A) (A) (A) (A) (A) (A) (A) (A) (A)
                 (A) (A) (A) (A) (A) (A) (A) (A) (A) (A) (A) (A)
                 (A) (A) (A) (A) (A) (A) (A) (A) (A) (A) (A) (A)
                 (A) (A) (A) (A) (A) (A) (A) (A) (A) (A) (A) (A)
                 (A) (A) (A) (A) (A) (A) (A) (A) (A) (A) (A) (A)
                 (A) (A) (A) (A) (A) (A) (A) (A) (A) (A) (A) (A)
                 (A) (A) (A) (A) (A) (A) (A) (A) (A) (A) (A) (A)
                 (A) (A) (A) (A) (A) (A)
 The electronic state is 1-A.
 Alpha  occ. eigenvalues --  -88.92702 -88.91105 -88.91035 -24.72899 -24.72832
 Alpha  occ. eigenvalues --  -24.72574 -24.72347 -24.71874 -24.71692 -19.18425
 Alpha  occ. eigenvalues --  -19.18409 -14.57348 -14.35573 -10.37777 -10.37623
 Alpha  occ. eigenvalues --  -10.37609 -10.28505 -10.27053 -10.27029 -10.26369
 Alpha  occ. eigenvalues --  -10.26282 -10.26154 -10.24853 -10.24776 -10.24573
 Alpha  occ. eigenvalues --  -10.24075 -10.23700 -10.23588 -10.23023 -10.22981
 Alpha  occ. eigenvalues --  -10.22911 -10.22909 -10.22858 -10.22815 -10.22568
 Alpha  occ. eigenvalues --  -10.22455 -10.22041 -10.21946 -10.21732 -10.21705
 Alpha  occ. eigenvalues --  -10.20262 -10.20181  -7.98848  -7.97168  -7.97087
 Alpha  occ. eigenvalues --   -5.95255  -5.94922  -5.94495  -5.93651  -5.93576
 Alpha  occ. eigenvalues --   -5.93306  -5.93234  -5.92688  -5.92597  -1.27990
 Alpha  occ. eigenvalues --   -1.25927  -1.25149  -1.21764  -1.21460  -1.20211
 Alpha  occ. eigenvalues --   -1.19970  -1.04532  -0.98033  -0.92992  -0.90431
 Alpha  occ. eigenvalues --   -0.89203  -0.87992  -0.86999  -0.83473  -0.81956
 Alpha  occ. eigenvalues --   -0.81129  -0.79129  -0.78668  -0.78347  -0.77623
 Alpha  occ. eigenvalues --   -0.76780  -0.75384  -0.73150  -0.72747  -0.72080
 Alpha  occ. eigenvalues --   -0.71527  -0.69025  -0.67780  -0.65107  -0.64511
 Alpha  occ. eigenvalues --   -0.63541  -0.62993  -0.62313  -0.60907  -0.60794
 Alpha  occ. eigenvalues --   -0.58670  -0.58287  -0.58006  -0.57172  -0.56927
 Alpha  occ. eigenvalues --   -0.56379  -0.55596  -0.54853  -0.54080  -0.53516
 Alpha  occ. eigenvalues --   -0.53124  -0.52739  -0.52317  -0.51716  -0.51054
 Alpha  occ. eigenvalues --   -0.50744  -0.49668  -0.48403  -0.48127  -0.47428
 Alpha  occ. eigenvalues --   -0.46940  -0.46317  -0.46138  -0.46101  -0.45765
 Alpha  occ. eigenvalues --   -0.45492  -0.45220  -0.44945  -0.44812  -0.44584
 Alpha  occ. eigenvalues --   -0.44271  -0.43618  -0.43244  -0.42555  -0.42312
 Alpha  occ. eigenvalues --   -0.42197  -0.41905  -0.41707  -0.41456  -0.41346
 Alpha  occ. eigenvalues --   -0.40727  -0.40581  -0.40480  -0.40272  -0.40156
 Alpha  occ. eigenvalues --   -0.39625  -0.39337  -0.38843  -0.38494  -0.37618
 Alpha  occ. eigenvalues --   -0.37540  -0.36953  -0.36221  -0.35920  -0.35186
 Alpha  occ. eigenvalues --   -0.34676  -0.34448  -0.33909  -0.32504  -0.32105
 Alpha  occ. eigenvalues --   -0.31854  -0.31053  -0.30881  -0.29515  -0.29361
 Alpha  occ. eigenvalues --   -0.29289  -0.28718  -0.27588  -0.25718  -0.25483
 Alpha  occ. eigenvalues --   -0.24546  -0.19494
 Alpha virt. eigenvalues --   -0.12170  -0.09142  -0.06121  -0.03666  -0.03531
 Alpha virt. eigenvalues --   -0.02780  -0.02108  -0.01261  -0.00804   0.01279
 Alpha virt. eigenvalues --    0.02006   0.03440   0.03967   0.05637   0.06330
 Alpha virt. eigenvalues --    0.07225   0.07841   0.08388   0.08889   0.10173
 Alpha virt. eigenvalues --    0.10455   0.10678   0.11117   0.11192   0.11831
 Alpha virt. eigenvalues --    0.12749   0.13456   0.14060   0.14151   0.14759
 Alpha virt. eigenvalues --    0.14839   0.15116   0.15174   0.15312   0.15984
 Alpha virt. eigenvalues --    0.16424   0.16653   0.16762   0.17629   0.18007
 Alpha virt. eigenvalues --    0.18267   0.18365   0.18608   0.19420   0.20730
 Alpha virt. eigenvalues --    0.21530   0.22018   0.22125   0.22553   0.22770
 Alpha virt. eigenvalues --    0.22845   0.23149   0.24177   0.25241   0.25445
 Alpha virt. eigenvalues --    0.25652   0.26034   0.26203   0.26767   0.27411
 Alpha virt. eigenvalues --    0.27700   0.28613   0.28945   0.30625   0.30865
 Alpha virt. eigenvalues --    0.31537   0.32907   0.33362   0.34062   0.34758
 Alpha virt. eigenvalues --    0.35134   0.35859   0.36197   0.36443   0.37315
 Alpha virt. eigenvalues --    0.37465   0.38547   0.39651   0.39873   0.40401
 Alpha virt. eigenvalues --    0.41682   0.43394   0.43516   0.44005   0.44718
 Alpha virt. eigenvalues --    0.46857   0.47199   0.47426   0.47798   0.48431
 Alpha virt. eigenvalues --    0.49107   0.49414   0.49661   0.50403   0.50448
 Alpha virt. eigenvalues --    0.50680   0.51143   0.51728   0.52045   0.52303
 Alpha virt. eigenvalues --    0.52507   0.52961   0.53370   0.53600   0.53903
 Alpha virt. eigenvalues --    0.54562   0.54748   0.55040   0.55203   0.55430
 Alpha virt. eigenvalues --    0.55781   0.56226   0.56568   0.56823   0.57248
 Alpha virt. eigenvalues --    0.57545   0.57966   0.58211   0.58662   0.59270
 Alpha virt. eigenvalues --    0.59596   0.60121   0.60335   0.61133   0.62008
 Alpha virt. eigenvalues --    0.62490   0.63220   0.63412   0.63630   0.63804
 Alpha virt. eigenvalues --    0.65294   0.65638   0.65933   0.66748   0.67127
 Alpha virt. eigenvalues --    0.67481   0.67878   0.68939   0.69346   0.69841
 Alpha virt. eigenvalues --    0.70234   0.71436   0.72470   0.72924   0.73609
 Alpha virt. eigenvalues --    0.74798   0.75119   0.75612   0.75823   0.76064
 Alpha virt. eigenvalues --    0.76423   0.76995   0.77483   0.77861   0.78336
 Alpha virt. eigenvalues --    0.78609   0.79998   0.80103   0.80295   0.80685
 Alpha virt. eigenvalues --    0.81158   0.81440   0.81501   0.82073   0.82352
 Alpha virt. eigenvalues --    0.82936   0.83740   0.84317   0.84619   0.84760
 Alpha virt. eigenvalues --    0.85128   0.85175   0.85843   0.86379   0.86811
 Alpha virt. eigenvalues --    0.87301   0.87824   0.88242   0.88714   0.88737
 Alpha virt. eigenvalues --    0.89950   0.90072   0.90485   0.91131   0.91355
 Alpha virt. eigenvalues --    0.91752   0.92200   0.92964   0.93601   0.93825
 Alpha virt. eigenvalues --    0.94397   0.94482   0.94717   0.95530   0.96161
 Alpha virt. eigenvalues --    0.96338   0.97400   0.97923   0.98203   0.98760
 Alpha virt. eigenvalues --    0.99161   0.99726   0.99918   1.00329   1.01245
 Alpha virt. eigenvalues --    1.01384   1.02247   1.02813   1.03720   1.04440
 Alpha virt. eigenvalues --    1.04859   1.05812   1.07341   1.08431   1.09090
 Alpha virt. eigenvalues --    1.09766   1.10473   1.10937   1.11623   1.12017
 Alpha virt. eigenvalues --    1.12600   1.12708   1.13518   1.14071   1.15291
 Alpha virt. eigenvalues --    1.15629   1.17178   1.17962   1.18050   1.18835
 Alpha virt. eigenvalues --    1.19965   1.20832   1.21739   1.22040   1.22832
 Alpha virt. eigenvalues --    1.23754   1.25151   1.25263   1.26290   1.26720
 Alpha virt. eigenvalues --    1.27271   1.27936   1.28298   1.29393   1.29941
 Alpha virt. eigenvalues --    1.31205   1.31357   1.31954   1.31988   1.33162
 Alpha virt. eigenvalues --    1.33669   1.33893   1.34276   1.34692   1.35219
 Alpha virt. eigenvalues --    1.35363   1.35610   1.36397   1.36614   1.36939
 Alpha virt. eigenvalues --    1.37102   1.37663   1.38156   1.39179   1.39932
 Alpha virt. eigenvalues --    1.40674   1.41024   1.41431   1.41805   1.42082
 Alpha virt. eigenvalues --    1.42804   1.43565   1.44105   1.45079   1.45283
 Alpha virt. eigenvalues --    1.47567   1.47751   1.48186   1.49449   1.51233
 Alpha virt. eigenvalues --    1.51536   1.52292   1.52487   1.53031   1.54966
 Alpha virt. eigenvalues --    1.55402   1.56372   1.56457   1.57546   1.58389
[...]
 .00032085,0.00725470,-0.00357436,-0.05001835,-0.03770090,-0.01902554,0
 .00080199,-0.00000823,0.00008260,-0.00017325,0.00014579,-0.00013090,-0
 .00081614,0.00023508,-0.00021592,-0.00012968,-0.00000219,-0.00001005,0
 .00004946,-0.00013086,0.00002008,0.00013461,-0.00014804,-0.00006758,0.
 00016354,0.00006528,0.00006095,-0.00015274,0.00006528,-0.00001025,-0.0
 0002908,0.00010869,0.00000957,-0.00000966,-0.00002119,-0.00000501,0.00
 003795,-0.00001239,0.00001625,-0.00004829,-0.00000334,-0.00001931,0.00
 000601,0.00003522,0.00003390,-0.00033425,0.00004996,-0.00005591,-0.321
 13649,-0.21452823,-0.04752018,0.00010537,-0.00013879,-0.00003144,-0.00
 001478,0.00001836,0.00000767,-0.00002878,-0.00000964,-0.00000185,-0.00
 002433,-0.00000319,-0.00001601,-0.00000483,-0.00001130,-0.00000545,0.3
 5106180,-0.00003066,-0.00003754,0.00009877,0.00018597,-0.00011840,-0.0
 0001042,-0.00008320,0.00053279,0.00001381,-0.00029666,-0.00053010,-0.0
 0017000,0.00036971,0.00063029,0.00010543,-0.00058481,-0.00051412,-0.00
 021401,0.00065400,-0.00012472,0.00025364,-0.00026794,-0.00058137,-0.00
 008094,0.00005184,-0.00019420,-0.00004644,0.00008684,-0.00025186,0.000
 08213,-0.00000397,0.00010028,-0.00009201,-0.00005687,0.00007379,-0.000
 00803,-0.00002296,0.00005429,0.00005584,-0.00000765,0.00016636,-0.0000
 2458,0.00014424,0.00018612,0.00016571,0.00016612,0.00021540,-0.0000697
 3,-0.00080731,0.00059850,-0.00033609,-0.00000895,0.00009139,0.00006868
 ,0.00029667,0.00003811,0.00005310,-0.00162326,0.00162894,-0.00081139,0
 .00072510,-0.00096468,0.00037478,-0.00003519,0.00001724,-0.00000592,-0
 .00000959,-0.00000344,0.00000157,0.00003701,-0.00002600,-0.00002404,0.
 00006855,0.00001787,-0.00000839,-0.00000774,0.00000096,0.00000496,0.00
 002110,0.00000797,0.00001609,-0.00001231,0.00000263,0.00003813,0.00000
 065,-0.00000879,-0.00002543,-0.00000309,0.00000741,0.00000561,-0.00000
 932,-0.00001506,0.00002131,0.00602873,-0.00842584,0.00552669,-0.002133
 53,0.00160220,-0.00177543,0.00260824,-0.00011621,0.00110697,-0.0004930
 3,0.00171175,-0.00089963,0.00136674,0.00141119,0.00113453,-0.02594026,
 0.00474440,-0.00761180,0.00158337,0.00095844,0.00053704,-0.00021384,0.
 00002676,-0.00010922,0.00004668,-0.00001474,-0.00011942,-0.00006957,-0
 .00002672,-0.00001038,0.00002865,-0.00004948,0.00001172,0.00004469,-0.
 00005215,-0.00002618,0.00006740,0.00002247,0.00002375,-0.00006413,0.00
 001891,-0.00000946,-0.00000250,0.00005515,0.00000966,-0.00000289,-0.00
 000720,0.00000016,0.00001251,-0.00000466,0.00000735,-0.00001458,0.0000
 0265,-0.00000462,0.00000195,0.00000772,0.00001197,-0.00012424,0.000024
 55,-0.00001953,-0.20453772,-0.33683158,-0.01540315,0.00004015,-0.00006
 009,-0.00001477,-0.00000574,0.00000670,0.00000282,-0.00000943,-0.00000
 391,-0.00000054,-0.00000819,-0.00000098,-0.00000575,-0.00000140,-0.000
 00367,-0.00000127,0.27611140,0.42731448,-0.00000783,0.00005680,0.00005
 924,0.00012356,-0.00007243,-0.00000362,-0.00007052,0.00034220,0.000013
 27,-0.00017204,-0.00034937,-0.00012919,0.00017871,0.00032514,0.0000671
 8,-0.00021552,-0.00032481,-0.00008013,0.00011721,0.00021768,0.00006428
 ,-0.00012309,-0.00046111,-0.00006118,0.00010454,-0.00016474,-0.0000410
 0,0.00009836,-0.00012468,0.00005543,-0.00001223,0.00005089,-0.00005198
 ,-0.00008110,0.00004728,-0.00000291,-0.00005023,0.00004794,0.00005824,
 -0.00003038,0.00012993,-0.00002319,0.00006015,0.00014113,0.00009890,0.
 00008617,0.00016483,-0.00004106,-0.00003965,0.00012115,-0.00002286,-0.
 00000674,-0.00005807,0.00011716,0.00003500,0.00013993,-0.00006848,-0.0
 0018379,0.00010956,0.00003310,-0.00006256,-0.00012963,-0.00007004,0.00
 002297,-0.00004540,-0.00003000,-0.00001186,0.00000094,-0.00000453,0.00
 001093,0.00002250,-0.00001322,0.00004106,-0.00000166,-0.00001141,-0.00
 001137,-0.00000300,0.00000891,0.00000760,0.00000422,0.00001972,-0.0000
 0999,0.00000355,0.00000728,-0.00001106,-0.00000157,-0.00001711,0.00000
 677,0.00000553,-0.00000167,0.00000732,-0.00000414,0.00000799,-0.002752
 66,0.00095355,0.00004130,0.00006754,-0.00095992,-0.00034430,0.00001527
 ,-0.00085289,0.00044220,-0.00099476,-0.00063201,-0.00139325,-0.0018776
 8,0.00370508,0.00140472,-0.02231283,-0.01274120,0.01168458,-0.00033830
 ,-0.00011812,0.00041494,-0.00001964,0.00005215,0.00000330,-0.00016210,
 -0.00002647,-0.00050900,-0.00003782,0.00000557,-0.00000159,0.00001331,
 -0.00004519,0.00000584,0.00004836,-0.00005057,-0.00002203,0.00005558,0
 .00002252,0.00002025,-0.00005126,0.00002287,-0.00000153,-0.00001104,0.
 00003321,0.00000322,-0.00000297,-0.00000697,-0.00000276,0.00001340,-0.
 00000368,0.00000437,-0.00001752,-0.00000089,-0.00000697,0.00000234,0.0
 0001344,0.00001015,-0.00011616,0.00001738,-0.00001823,-0.05045553,-0.0
 1984377,-0.09042063,0.00003617,-0.00004832,-0.00001108,-0.00000494,0.0
 0000652,0.00000246,-0.00001043,-0.00000317,-0.00000051,-0.00000838,-0.
 00000138,-0.00000566,-0.00000162,-0.00000384,-0.00000227,0.06374624,0.
 00818087,0.05293060,-0.00000813,0.00008973,0.00010354,0.00024299,-0.00
 014396,-0.00001266,-0.00013928,0.00066634,0.00002133,-0.00033392,-0.00
 068475,-0.00024008,0.00034949,0.00064815,0.00011903,-0.00042407,-0.000
 63534,-0.00015510,0.00020479,0.00040273,0.00012167,-0.00020835,-0.0008
 7166,-0.00004023,0.00018912,-0.00031848,-0.00003826,0.00017776,-0.0002
 3012,0.00013934,-0.00002065,0.00009709,-0.00012220,-0.00015355,0.00008
 763,-0.00001413,-0.00008847,0.00008728,0.00008112,-0.00005746,0.000251
 71,-0.00005586,0.00008336,0.00025139,0.00012434,0.00018415,0.00032919,
 -0.00011555,-0.00003732,0.00019889,-0.00005881,0.00002203,-0.00005131,
 0.00020141,0.00005517,0.00018519,-0.00013907,-0.00017317,0.00052728,0.
 00001850,-0.00020708,-0.00022992,-0.00015781,0.00000786,-0.00013291,0.
 00004010,-0.00002532,0.00000312,-0.00000226,0.00001478,0.00002921,-0.0
 0001907,0.00008398,0.00000401,-0.00001839,-0.00002480,-0.00000710,0.00
 001399,0.00001659,0.00001544,0.00004420,-0.00002847,0.00000675,0.00001
 691,-0.00001925,-0.00000393,-0.00003362,0.00001270,0.00000399,-0.00000
 181,0.00001343,-0.00000515,0.00001729,-0.00431477,-0.00481574,-0.00189
 157,-0.00197959,0.00208450,-0.00106648,0.00099194,0.00082800,-0.000069
 91,0.00072041,0.00170543,0.00017221,-0.00443595,0.00070742,-0.00277855
 ,-0.00615376,0.04095689,-0.02193187,-0.00309208,0.00228748,-0.00189981
 ,-0.00071410,0.00019455,-0.00019870,-0.00009193,-0.00008845,0.00000196
 ,-0.00007243,0.00001315,-0.00000205,0.00002691,-0.00008737,0.00001112,
 0.00009345,-0.00010068,-0.00004493,0.00010534,0.00004444,0.00003982,-0
 .00009821,0.00004694,-0.00000359,-0.00002502,0.00006452,0.00000314,-0.
 00000701,-0.00001464,-0.00000464,0.00002625,-0.00000838,0.00001019,-0.
 00003399,-0.00000449,-0.00001440,0.00000438,0.00002648,0.00002301,-0.0
 0022369,0.00002999,-0.00003792,-0.13828155,0.07414347,-0.04879338,0.00
 006988,-0.00008837,-0.00001943,-0.00000972,0.00001247,0.00000518,-0.00
 002004,-0.00000625,-0.00000134,-0.00001680,-0.00000230,-0.00001084,-0.
 00000347,-0.00000784,-0.00000411,0.02970267,-0.05512541,0.01728175,0.1
 2804876,0.00001453,0.00001176,-0.00019034,-0.00037913,0.00022429,0.000
 01106,0.00023048,-0.00102828,-0.00000971,0.00053218,0.00103444,0.00033
 158,-0.00065432,-0.00110988,-0.00019821,0.00087768,0.00100957,0.000338
 16,-0.00089643,0.00004603,-0.00035990,0.00013098,0.00080265,0.00001505
 ,-0.00018797,0.00026433,0.00006101,-0.00017728,0.00024788,-0.00011558,
 0.00001715,-0.00010417,0.00012304,0.00015859,-0.00008460,0.00001404,0.
 00009038,-0.00006982,-0.00008945,0.00005913,-0.00021850,0.00004633,-0.
 00007365,-0.00023492,-0.00012047,-0.00013839,-0.00029211,0.00009302,0.
 00098167,-0.00067183,0.00041826,0.00014029,-0.00004575,-0.00006310,-0.
 00010737,-0.00007469,0.00013187,0.00198418,-0.00145112,0.00071612,-0.0
 0097163,0.00119922,-0.00049811,-0.00002353,0.00009930,-0.00000070,0.00
 002068,-0.00000071,-0.00000223,-0.00006823,0.00003126,0.00002431,-0.00
 011078,-0.00005219,0.00002862,0.00003698,0.00000542,-0.00000606,-0.000
 02566,-0.00003442,-0.00004409,0.00002272,-0.00000416,-0.00006045,0.000
 01220,0.00000973,0.00004788,-0.00000283,-0.00000757,-0.00000404,-0.000
 00310,0.00002301,-0.00002757,0.00122744,0.00439922,0.00020354,0.002648
 92,0.00042561,0.00094532,-0.00298902,0.00115551,-0.00137427,0.00311225
 ,-0.00028204,0.00109184,-0.00969236,-0.00576801,-0.00220686,0.02936705
 ,-0.02832128,0.02569364,0.00165946,0.00284636,-0.00004363,0.00038113,-
 0.00008115,0.00006945,0.00027108,-0.00004004,0.00011638,0.00011002,0.0
 0002266,0.00000786,-0.00004924,0.00010697,-0.00002327,-0.00009392,0.00
 011533,0.00005786,-0.00012331,-0.00004711,-0.00004168,0.00012737,-0.00
 004944,0.00000782,0.00002928,-0.00009912,-0.00001629,0.00001082,0.0000
 1700,0.00000805,-0.00002942,0.00000993,-0.00001133,0.00003032,0.000006
 63,0.00001603,-0.00000910,-0.00002959,-0.00002276,0.00024576,-0.000025
 58,0.00004064,0.06404302,-0.47548541,0.14037373,-0.00007533,0.00009694
 ,0.00002158,0.00001052,-0.00001430,-0.00000548,0.00002187,0.00000587,0
 .00000210,0.00001786,0.00000338,0.00001076,0.00000416,0.00000793,0.000
 00518,-0.02681800,-0.09641079,0.02253857,-0.06388610,0.59643644,-0.000
 00594,0.00003504,0.00010291,0.00021790,-0.00012810,-0.00000798,-0.0001
 3243,0.00058811,0.00001337,-0.00029737,-0.00059785,-0.00020215,0.00033
 739,0.00060425,0.00011083,-0.00043063,-0.00057033,-0.00016284,0.000335
 62,0.00019069,0.00015060,-0.00014018,-0.00063289,-0.00005442,0.0001457
 4,-0.00021831,-0.00005245,0.00013578,-0.00017561,0.00008071,-0.0000153
 7,0.00007251,-0.00007940,-0.00011669,0.00006454,-0.00000637,-0.0000703
 4,0.00006122,0.00007579,-0.00004372,0.00017390,-0.00003354,0.00007003,
 0.00018863,0.00011518,0.00011673,0.00022918,-0.00006524,-0.00028519,0.
 00028095,-0.00009552,-0.00004386,-0.00002222,0.00011165,0.00006973,0.0
 0011460,-0.00010028,-0.00072626,0.00065323,-0.00020160,0.00013748,-0.0
 0047670,0.00008260,0.00003984,-0.00006852,-0.00004970,-0.00001602,0.00
 000132,-0.00000296,0.00003181,0.00000564,-0.00001775,0.00006653,0.0000
 1497,-0.00001616,-0.00001929,-0.00000414,0.00000965,0.00001299,0.00001
 212,0.00002960,-0.00001639,0.00000472,0.00002649,-0.00001298,-0.000004
 28,-0.00002930,0.00000666,0.00000823,-0.00000078,0.00000652,-0.0000117
 5,0.00001393,-0.00364897,-0.00240545,0.00240696,-0.00109495,0.00053372
 ,-0.00179318,0.00119697,0.00007688,0.00062701,-0.00028980,0.00064992,-
 0.00094906,0.00015104,0.00237997,0.00097545,-0.01860797,0.03072388,0.0
 0097975,-0.00172536,0.00013071,-0.00096852,-0.00020798,-0.00006228,-0.
 00051645,-0.00011373,-0.00002765,-0.00002295,-0.00006246,-0.00000069,-
 0.00000186,0.00002434,-0.00006958,0.00001175,0.00006925,-0.00007625,-0
 .00003562,0.00008341,0.00003294,0.00002918,-0.00008054,0.00003365,-0.0
 0000337,-0.00001758,0.00005604,0.00000765,-0.00000535,-0.00001075,-0.0
 0000489,0.00001995,-0.00000589,0.00000694,-0.00002405,-0.00000217,-0.0
 0001055,0.00000476,0.00001980,0.00001480,-0.00017132,0.00002292,-0.000
 02687,-0.04598120,0.14485906,-0.13461881,0.00005284,-0.00007049,-0.000
 01614,-0.00000721,0.00000981,0.00000362,-0.00001542,-0.00000437,-0.000
 00098,-0.00001232,-0.00000225,-0.00000798,-0.00000253,-0.00000555,-0.0
 0000352,0.00929013,0.01014133,0.02676238,0.06171817,-0.18728584,0.1068
 2773,0.00000041,0.00002905,-0.00002594,0.00000845,-0.00000208,0.000006
 13,-0.00000277,0.00001216,-0.00000128,-0.00000947,-0.00000711,-0.00000
 276,-0.00000649,0.00001911,0.00000339,-0.00002962,-0.00001026,-0.00001
 070,0.00001092,0.00001599,0.00001131,-0.00007277,-0.00008069,-0.000047
 83,-0.00000389,-0.00001220,-0.00001031,0.00000236,-0.00003046,-0.00000
 105,0.00000097,0.00001051,-0.00000297,0.00000288,0.00000860,0.00000147
 ,0.00000262,0.00000542,0.00000937,0.00000398,0.00001231,0.00000151,0.0
 0004254,0.00002846,0.00004907,0.00003234,0.00002653,-0.00000177,-0.000
 02292,0.00004773,-0.00002619,-0.00005344,-0.00005588,0.00003805,-0.000
 15003,0.00013998,-0.00002892,-0.00033188,-0.00092653,-0.00000342,0.000
 02180,-0.00003629,-0.00006660,-0.00005168,0.00002021,0.00001806,-0.000
 00252,-0.00000115,-0.00000029,-0.00000477,0.00000150,0.00000401,-0.000
 00084,-0.00000213,-0.00000395,0.00000111,0.00000164,0.00000051,0.00000
 138,-0.00000206,0.00000001,-0.00000269,-0.00000044,-0.00000159,-0.0000
 0063,0.00000066,0.00000044,-0.00000026,0.00000319,-0.00000086,0.000001
 21,-0.00000165,-0.00000252,-0.19757100,-0.14869253,-0.02582890,-0.0128
 6414,-0.01862044,-0.00163715,-0.00150119,0.00137770,-0.00441345,-0.000
 28528,0.00083958,-0.00011757,0.00078721,0.00165595,-0.00207452,0.00853
 213,0.00326930,0.00073272,0.00064053,0.00035035,-0.00015943,0.00025424
 ,0.00060443,0.00191267,-0.00013620,0.00002297,0.00028034,-0.00000012,0
 .00000003,-0.00000015,0.00000014,-0.00000149,-0.00000014,0.00000061,-0
 .00000040,-0.00000039,0.00000118,0.00000007,0.00000017,-0.00000133,0.0
 0000018,-0.00000019,-0.00000019,0.00000101,0.00000041,-0.00000010,-0.0
 0000010,-0.00000010,0.00000021,-0.00000004,0.00000013,0.00000014,0.000
 00068,0.00000029,0.00000007,0.00000013,0.00000008,-0.00000220,0.000001
 33,0.00000017,-0.00050013,0.00007964,0.00164588,-0.00000001,-0.0000028
 5,-0.00000114,0.,0.00000026,0.00000006,-0.00000016,-0.00000009,-0.0000
 0001,-0.00000010,-0.00000008,-0.00000009,-0.00000002,0.00000003,-0.000
 00001,-0.00335515,0.00186965,-0.00190471,0.00007520,-0.00104209,0.0000
 9979,0.20653936,-0.00000203,-0.00001809,0.00001019,-0.00000927,0.00000
 444,-0.00000220,0.00000056,-0.00002352,-0.00000144,0.00001625,0.000020
 77,0.00000720,-0.00000800,-0.00003264,-0.00000570,0.00003875,0.0000224
 0,0.00001374,-0.00003272,-0.00000577,-0.00001741,0.00005429,0.00007375
 ,0.00002257,0.00000114,0.00002166,0.00000520,-0.00000648,0.00003101,-0
 .00000492,-0.00000002,-0.00001171,0.00000712,0.00000163,-0.00000896,-0
 .00000014,-0.00000113,-0.00000674,-0.00000597,-0.00000234,-0.00001906,
 0.00000166,-0.00002882,-0.00002555,-0.00002999,-0.00002845,-0.00002752
 ,0.00000718,0.00004024,-0.00003739,0.00002887,0.00003657,0.00003205,-0
 .00002029,0.00011186,-0.00003730,0.00004205,0.00026126,0.00035246,0.00
 004319,-0.00005753,0.00004327,0.00001021,0.00002134,-0.00000363,-0.000
 01307,0.00000214,0.00000069,0.00000022,-0.00000189,-0.00000206,-0.0000
 0145,0.,0.00000123,0.00000171,-0.00000081,-0.00000100,-0.00000091,-0.0
 0000148,0.00000246,-0.00000082,0.00000280,-0.00000047,0.00000053,0.000
 00108,-0.00000026,0.00000070,-0.00000047,-0.00000082,-0.00000008,-0.00
 000107,-0.00000034,0.00000079,-0.14687427,-0.20428777,-0.01517954,0.00
 706233,0.01010950,0.00114176,0.00137897,0.00088145,0.00258529,0.000769
 34,-0.00004256,0.00017347,0.00232281,-0.00377790,0.00341676,-0.0212275
 0,-0.01575419,-0.00321838,-0.00125031,-0.00069820,-0.00013436,0.000324
 23,0.00040964,-0.00129093,0.00000906,-0.00002177,-0.00022761,0.0000035
 8,0.00000040,0.00000087,-0.00000136,0.00000288,-0.00000035,-0.00000259
 ,0.00000282,0.00000128,-0.00000357,-0.00000128,-0.00000125,0.00000337,
 -0.00000104,0.00000041,0.00000008,-0.00000251,-0.00000052,0.00000012,0
 .00000034,0.00000007,-0.00000078,0.00000027,-0.00000037,0.00000086,-0.
 00000037,0.00000017,-0.00000004,-0.00000070,-0.00000053,0.00000711,-0.
 00000201,0.00000076,-0.00381966,-0.00302806,-0.00210826,-0.00000213,0.
 00000415,0.00000120,0.00000031,-0.00000037,-0.00000019,0.00000054,0.00
 000024,0.00000004,0.00000047,0.00000008,0.00000037,0.00000008,0.000000
 14,0.00000006,0.00129905,0.00310058,-0.00040390,0.00051980,0.00147389,
 -0.00003461,0.15907268,0.21128901,-0.00000156,0.00000742,-0.00000355,-
 0.00000202,0.00000472,-0.00000537,0.00000347,-0.00001209,0.00000308,0.
 00000670,0.00001220,-0.00000294,-0.00001162,-0.00003104,0.00000356,0.0
 0002504,0.00001999,0.00000892,-0.00003792,0.00003266,-0.00002110,-0.00
 003623,-0.00002340,0.00003343,-0.00000878,-0.00000412,0.00001414,-0.00
 000684,-0.00000390,0.00001344,0.00000218,0.00000202,-0.00000826,0.0000
 0555,0.00000095,-0.00000246,0.00000691,-0.00000032,-0.00001147,0.00000
 279,0.00000574,-0.00000463,0.00000721,0.00000276,-0.00001098,0.0000282
 6,0.00001318,-0.00002062,0.00004329,0.00000733,0.00004565,0.00003681,-
 0.00006395,-0.00003437,-0.00006126,0.00003353,-0.00016533,-0.00015688,
 -0.00065807,0.00020917,-0.00002791,-0.00002306,-0.00000894,0.00000900,
 0.00003694,-0.00001317,0.00000033,-0.00000010,-0.00000191,-0.00003347,
 0.00002599,-0.00000403,0.00000209,-0.00000064,-0.00000024,-0.00000048,
 0.00000015,0.00000436,0.00000229,-0.00000074,0.00000354,0.00000338,0.0
 0000315,-0.00001311,-0.00000072,0.00000052,-0.00000002,0.00000030,-0.0
 0000250,0.00000130,0.00000150,0.00000240,-0.00000082,-0.02633050,-0.01
 554199,-0.04526903,-0.00901835,-0.00973392,0.00272598,-0.00474591,0.00
 259725,0.00499703,-0.00017691,0.00028712,-0.00075744,-0.00214400,0.003
 14276,0.00275750,0.00778217,0.00687677,0.00606061,0.00029260,0.0005785
 4,0.00077359,0.00204779,-0.00132664,-0.00326676,0.00028540,-0.00021714
 ,-0.00063474,0.00000025,0.00000156,0.00000093,-0.00000034,0.00000017,-
 0.00000066,-0.00000075,0.00000058,0.00000030,-0.00000124,-0.00000051,-
 0.00000004,0.00000084,0.00000014,-0.00000006,-0.00000027,-0.00000053,-
 0.00000109,-0.00000025,-0.00000019,0.00000028,-0.00000016,-0.00000010,
 0.00000028,0.00000019,-0.00000030,0.00000003,-0.00000016,0.00000003,0.
 00000065,0.00000197,-0.00000053,-0.00000040,0.00274281,-0.00032638,-0.
 00305566,-0.00000080,0.00000120,0.00000025,0.00000007,-0.00000015,0.00
 000013,0.00000021,-0.00000001,-0.00000009,-0.00000002,0.00000012,0.000
 00010,-0.00000006,-0.00000002,0.00000014,-0.00176591,-0.00011585,-0.00
 092764,-0.00033090,-0.00078926,0.00058266,0.03156084,0.01517956,0.0360
 0590\\-0.00000538,0.00000019,0.00000297,0.00000272,-0.00000062,0.00000
 176,-0.00000487,0.00001016,0.00000277,-0.00000632,-0.00000793,-0.00000
 594,0.00000985,0.00000240,0.00000612,-0.00001198,-0.00000279,-0.000005
 68,0.00001099,0.00000274,0.00000393,-0.00000078,-0.00000210,-0.0000179
 3,-0.00000282,-0.00001545,0.00001251,0.00001400,0.00000218,-0.00000316
 ,-0.00000023,-0.00000048,0.00000268,-0.00000476,0.00000124,0.00000070,
 0.00000469,0.00000221,-0.00000708,0.00000248,0.00000975,-0.00000581,0.
 00000457,0.00000139,0.00000532,0.00000057,-0.00000123,0.00000370,-0.00
 000796,-0.00000298,-0.00000563,0.00000567,0.00000034,-0.00000244,-0.00
 000198,-0.00000146,-0.00000131,-0.00000203,0.00000437,-0.00000183,0.00
 000966,-0.00000228,0.00000296,-0.00000030,-0.00000060,-0.00000326,0.00
 000152,0.00000260,0.00000225,0.00000013,-0.00000034,-0.00000021,0.0000
 0119,0.00000046,0.00000034,-0.00000077,-0.00000092,-0.00000009,-0.0000
 0130,-0.00000084,-0.00000064,-0.00000107,-0.00000087,-0.00000010,0.000
 00082,0.00000064,0.00000009,0.00000074,-0.00000016,-0.00000068,0.00000
 063,0.00000071,0.00000025,0.00000555,-0.00000289,-0.00000054,-0.000001
 35,-0.00000206,-0.00000342,0.00000416,-0.00000570,0.00000080,-0.000001
 96,0.00000194,-0.00000320,0.00000601,-0.00000151,0.00000059,-0.0000124
 2,0.00000014,-0.00000865,0.00000025,-0.00000090,-0.00000194,0.00000133
 ,-0.00000262,-0.00000222,0.00000061,-0.00000038,-0.00000097,-0.0000014
 0,-0.00000471,-0.00000080,-0.00000143,0.00000199,0.00000181,-0.0000017
 1,0.00000046,0.00000182,0.00000194,0.00000382,0.00000467,-0.00000482,0
 .00000201,0.00000223,-0.00000127,0.00000316,0.00000236,-0.00000255,0.0
 0000135,0.00000270,-0.00000039,0.00000076,0.00000141,0.00000066,0.0000
 0341,0.00000388,-0.00000240,0.00000073,0.00000156,-0.00000303,0.000001
 39,0.00000238,0.00000003,-0.00000373,-0.00000343,-0.00000328,-0.000000
 42,0.00000202,-0.00000335,0.00000257,0.00000367,-0.00000137,0.00000333
 ,0.00000426,-0.00000160,0.00000275,0.00000406,-0.00000276,0.00000277,0
 .00000420,0.00000470,-0.00000242,-0.00000161,0.00000338,-0.00000268,-0
 .00000119,0.00000080,-0.00000291,-0.00000302\\\@


 The arm of the moral universe is long, but it bends toward justice.
 -- Martin Luther King, Jr.
 Job cpu time:       0 days 11 hours  7 minutes 59.6 seconds.
 File lengths (MBytes):  RWF=   3633 Int=      0 D2E=      0 Chk=     41 Scr=      1
 Normal termination of Gaussian 09 at Thu Apr  8 20:05:20 2021.
